/*--------------------------------*- C++ -*----------------------------------*\
| =========                 |                                                 |
| \\      /  F ield         | OpenFOAM: The Open Source CFD Toolbox           |
|  \\    /   O peration     | Version:  2.4.0                                 |
|   \\  /    A nd           | Web:      www.OpenFOAM.org                      |
|    \\/     M anipulation  |                                                 |
\*---------------------------------------------------------------------------*/
FoamFile
{
    version     2.0;
    format      ascii;
    class       polyBoundaryMesh;
    location    "constant/polyMesh";
    object      boundary;
}
// * * * * * * * * * * * * * * * * * * * * * * * * * * * * * * * * * * * * * //


20
(
    row_1_INFLOW_1
    {
        type             patch;
        nFaces           40;
        startFace        282096;
        inGroups         (row_1_INFLOW);
    }
    row_1_HUB_2
    {
        type             wall;
        nFaces           15040;
        startFace        282136;
        inGroups         (row_1_HUB);
    }
    row_1_SHROUD_3
    {
        type             wall;
        nFaces           15040;
        startFace        297176;
        inGroups         (row_1_SHROUD);
    }
    row_1_OUTFLOW_4
    {
        type             patch;
        nFaces           40;
        startFace        312216;
        inGroups         (row_1_OUTFLOW);
    }
    row_1_HUB_5
    {
        type             wall;
        nFaces           15680;
        startFace        312256;
        inGroups         (row_1_HUB);
    }
    row_1_SHROUD_6
    {
        type             wall;
        nFaces           15680;
        startFace        327936;
        inGroups         (row_1_SHROUD);
    }
    row_1_HUB_7
    {
        type             wall;
        nFaces           37632;
        startFace        343616;
        inGroups         (row_1_HUB);
    }
    row_1_SHROUD_8
    {
        type             wall;
        nFaces           37632;
        startFace        381248;
        inGroups         (row_1_SHROUD);
    }
    row_1_Main_Blade_9
    {
        type             wall;
        nFaces           588;
        startFace        418880;
        inGroups         (row_1_Main_Blade);
    }
    row_1_Main_Blade_10
    {
        type             wall;
        nFaces           588;
        startFace        419468;
        inGroups         (row_1_Main_Blade);
    }
    row_1_OUTFLOW_11
    {
        type             patch;
        nFaces           28;
        startFace        420056;
        inGroups         (row_1_OUTFLOW);
    }
    row_1_INFLOW_12
    {
        type             patch;
        nFaces           28;
        startFace        420084;
        inGroups         (row_1_INFLOW);
    }
    row_1_HUB_13
    {
        type             wall;
        nFaces           36848;
        startFace        420112;
        inGroups         (row_1_HUB);
    }
    row_1_SHROUD_14
    {
        type             wall;
        nFaces           36848;
        startFace        456960;
        inGroups         (row_1_SHROUD);
    }
    row_1_PER2_15
    {
        type             cyclicAMI;
        nFaces           1316;
        startFace        493808;
        matchTolerance   0.0001;
        transform        translational;
        separationVector (-0 -0.70714 -0);
        neighbourPatch   row_1_PER1_16;
        inGroups         (row_1_PER2);
    }
    row_1_INFLOW_17
    {
        type             patch;
        nFaces           28;
        startFace        495124;
        inGroups         (row_1_INFLOW);
    }
    row_1_OUTFLOW_18
    {
        type             patch;
        nFaces           28;
        startFace        495152;
        inGroups         (row_1_OUTFLOW);
    }
    row_1_HUB_19
    {
        type             wall;
        nFaces           36848;
        startFace        495180;
        inGroups         (row_1_HUB);
    }
    row_1_SHROUD_20
    {
        type             wall;
        nFaces           36848;
        startFace        532028;
        inGroups         (row_1_SHROUD);
    }
    row_1_PER1_16
    {
        type             cyclicAMI;
        nFaces           1316;
        startFace        568876;
        matchTolerance   0.0001;
        transform        translational;
        separationVector (-0 -0.70714 -0);
        neighbourPatch   row_1_PER2_15;
        inGroups         (row_1_PER1);
    }
)


// ************************************************************************* //
