/*--------------------------------*- C++ -*----------------------------------*\
| =========                 |                                                 |
| \\      /  F ield         | OpenFOAM: The Open Source CFD Toolbox           |
|  \\    /   O peration     | Version:  v2012                                 |
|   \\  /    A nd           | Website:  www.openfoam.com                      |
|    \\/     M anipulation  |                                                 |
\*---------------------------------------------------------------------------*/
FoamFile
{
    version     2.0;
    format      ascii;
    class       volScalarField;
    location    "0";
    object      k;
}
// * * * * * * * * * * * * * * * * * * * * * * * * * * * * * * * * * * * * * //

dimensions      [0 2 -2 0 0 0 0];


internalField   nonuniform List<scalar> 
97664
(
23.7097
24.2696
24.7626
25.1991
25.5854
25.922
26.2259
26.5562
26.9878
27.5718
28.3213
29.2204
30.2019
31.142
31.9273
32.5211
32.9015
33.0329
32.9049
32.5327
31.9432
31.2518
30.6426
30.2945
30.3465
30.8889
31.9554
33.5148
35.4774
37.6812
39.8459
41.5985
42.7394
43.3103
43.3663
42.8845
41.8376
40.2055
37.949
35.1956
32.2265
29.3205
26.6938
24.5163
22.9202
22.0081
21.8468
22.4628
23.8407
25.9265
28.6351
31.8561
35.4565
39.2912
43.1996
46.923
49.959
51.7895
52.3612
52.0914
51.3929
50.4042
49.108
47.4478
45.2009
42.1862
38.575
34.7115
30.8591
27.1567
23.6719
20.4457
17.5097
14.8901
12.6059
10.6697
9.08786
7.86098
6.98575
6.45756
6.27352
6.43432
6.94354
7.80765
9.03476
10.6329
12.6083
14.9647
17.7039
20.8248
24.322
28.1838
32.393
36.9272
41.7606
46.8669
52.2211
57.7807
63.3917
68.6336
72.794
75.1593
75.486
74.2217
72.2104
70.1618
68.3802
66.8875
65.613
64.3054
62.2966
58.9811
54.3789
49.0155
43.4822
38.1777
33.2919
28.8656
24.8851
21.3225
18.1497
15.3422
12.8774
10.7308
8.8788
7.29597
5.95652
4.83578
3.9094
3.15311
2.54358
2.05912
1.67956
1.38627
1.16251
0.993931
0.868699
0.777095
0.711232
0.664857
0.63315
0.61254
0.600567
0.595792
0.597779
0.607171
0.625887
0.657483
0.707696
0.785251
0.90296
1.0792
1.3398
1.72048
2.26971
3.05206
4.15186
5.67689
7.76172
10.5702
14.2965
19.1643
25.4246
33.3525
43.2421
55.3973
70.1143
87.675
108.356
132.425
160.089
191.286
225.07
258.623
286.869
304.369
309.359
305.879
300.331
296.622
295.814
297.571
297.879
288.528
264.524
228.7
188.228
149.174
114.658
85.6275
62.0463
43.5278
29.5053
19.3211
12.2642
7.61168
4.69454
2.95894
1.98238
1.46294
1.20137
1.07684
1.02085
0.996816
0.986909
0.982998
0.98144
0.980826
0.980544
0.980294
0.979961
0.979495
0.978899
0.978235
0.977613
0.977229
0.977432
0.978693
0.981532
0.986523
23.706
24.2617
24.7511
25.1852
25.5696
25.9048
26.2113
26.5512
26.9977
27.5984
28.3625
29.2705
30.2497
31.1731
31.9361
32.5075
32.8638
32.9703
32.8209
32.4312
31.8341
31.1549
30.5791
30.2815
30.3951
31.0035
32.1332
33.7444
35.7404
37.9477
40.0662
41.7316
42.7845
43.2824
43.2669
42.7083
41.5848
39.869
37.5354
34.7425
31.7796
28.9178
26.3652
24.2858
22.8075
22.0277
22.007
22.7645
24.2772
26.4849
29.2967
32.597
36.2486
40.1033
43.991
47.6051
50.4015
51.9322
52.2754
51.89
51.1287
50.0772
48.7051
46.9327
44.509
41.3278
37.63
33.7546
29.9324
26.2795
22.8551
19.6976
16.8382
14.3017
12.1062
10.263
8.77737
7.64908
6.8745
6.44938
6.3719
6.6437
7.26919
8.25533
9.61018
11.3411
13.4529
15.9479
18.8264
22.0855
25.7168
29.7063
34.0341
38.6757
43.6045
48.7938
54.2169
59.804
65.3132
70.1957
73.6874
75.2121
74.8084
73.1442
71.0643
69.1171
67.4628
66.0687
64.831
63.3254
60.8203
56.9399
51.9638
46.4916
41.0468
35.9303
31.2597
27.0441
23.2601
19.8794
16.8756
14.2256
11.9062
9.89372
8.16393
6.69134
5.45068
4.41766
3.56797
2.87769
2.32433
1.88698
1.54623
1.28423
1.08529
0.936175
0.82606
0.746058
0.689027
0.649376
0.622882
0.606526
0.598387
0.597594
0.604368
0.620174
0.648015
0.692918
0.762636
0.868634
1.02742
1.26224
1.60531
2.1004
2.80591
3.79834
5.17571
7.06087
9.60405
12.9841
17.4083
23.1104
30.3467
39.394
50.5411
64.0764
80.2736
99.395
121.701
147.423
176.64
208.849
242.098
272.215
293.673
302.962
301.943
296.635
292.084
290.17
291.167
293.003
288.824
271.472
240.633
202.212
163.002
127.218
96.51
71.1486
50.8671
35.1942
23.5342
15.2317
9.59664
5.95457
3.71521
2.40984
1.69009
1.31428
1.12839
1.04152
1.00303
0.986569
0.979799
0.977008
0.975766
0.975115
0.974639
0.974147
0.973585
0.972958
0.972314
0.97176
0.971451
0.971616
0.972622
0.974859
0.978554
0.983529
23.7021
24.2536
24.7395
25.1713
25.5539
25.8878
26.1974
26.5475
27.0093
27.6264
28.4046
29.3206
30.2958
31.2016
31.9423
32.4916
32.8238
32.9056
32.7358
32.3295
31.7268
31.062
30.5218
30.2758
30.4514
31.1254
32.3165
33.9774
36.0034
38.2086
40.2739
41.8504
42.8181
43.2445
43.157
42.5215
41.3216
39.5219
37.1161
34.2912
31.3403
28.5281
26.0538
24.0758
22.718
22.0722
22.1924
23.0903
24.7357
27.0618
29.9722
33.3461
37.0427
40.9102
44.7637
48.2409
50.7756
52.0145
52.1573
51.6753
50.8535
49.7348
48.2838
46.383
43.7766
40.4455
36.6818
32.8072
29.0206
25.4199
22.0577
18.9709
16.1897
13.738
11.6327
9.88387
8.49568
7.46715
6.7945
6.47412
6.5052
6.89024
7.63437
8.74486
10.2296
12.0947
14.3438
16.9776
19.9949
23.3902
27.1529
31.2661
35.7077
40.4511
45.4693
50.7359
56.2166
61.7938
67.1139
71.5136
74.2454
74.9447
73.9335
72.0179
69.9604
68.1356
66.5961
65.2857
64.0126
62.1758
59.1132
54.7303
49.4957
44.0098
38.7039
33.7914
29.3349
25.322
21.7262
18.5198
15.6783
13.1792
10.9992
9.11479
7.50126
6.13316
4.98592
4.03535
3.25723
2.62828
2.12684
1.73278
1.42735
1.19365
1.01701
0.885372
0.788773
0.719125
0.669999
0.636444
0.614823
0.602681
0.598672
0.602567
0.615365
0.639533
0.679415
0.741857
0.837085
0.979883
1.19116
1.49989
1.94556
2.58097
3.47538
4.71786
6.4204
8.72055
11.7829
15.7992
20.9867
27.5852
35.8532
46.0646
58.4977
73.4202
91.0845
111.738
135.619
162.885
193.336
225.723
256.834
281.549
295.239
297.539
293.219
288.103
285.163
285.054
287.164
286.67
275.74
250.805
215.638
177.055
140.372
108.13
81.0302
58.9874
41.6243
28.4158
18.7724
12.0371
7.55358
4.7092
2.9934
2.01282
1.4821
1.20967
1.07722
1.01632
0.989506
0.978057
0.973272
0.971138
0.970029
0.96929
0.968648
0.967997
0.96733
0.966693
0.966167
0.965882
0.966009
0.966773
0.968499
0.971381
0.975263
0.979427
23.6979
24.2453
24.7277
25.1575
25.5382
25.8711
26.1844
26.5453
27.0224
27.6555
28.4475
29.3703
30.3401
31.2274
31.9461
32.4733
32.7816
32.8392
32.6497
32.2277
31.6214
30.9735
30.4706
30.2774
30.5154
31.2544
32.5053
34.2135
36.2659
38.4628
40.4685
41.9552
42.8407
43.1966
43.0369
42.3245
41.0478
39.1645
36.6912
33.841
30.9097
28.152
25.7599
23.8868
22.6519
22.1415
22.4028
23.4399
25.2153
27.6561
30.6605
34.1022
37.8373
41.7102
45.5128
48.8247
51.0811
52.043
52.0132
51.4489
50.5666
49.3772
47.8407
45.7952
43.0065
39.5446
35.7339
31.8707
28.1243
24.5782
21.2801
18.2658
15.5647
13.1995
11.1858
9.53268
8.24316
7.31561
6.74633
6.53246
6.67413
7.17465
8.03974
9.27689
10.8933
12.8941
15.281
18.0534
21.2082
24.7378
28.6286
32.8612
37.4112
42.2509
47.3527
52.69
58.2104
63.7231
68.7487
72.5459
74.4634
74.4011
72.927
70.8908
68.9129
67.2123
65.7748
64.5184
63.1033
60.8189
57.1919
52.4008
47.0195
41.5958
36.4638
31.7616
27.5126
23.6942
20.2786
17.2396
14.5542
12.1997
10.1532
8.39089
6.88771
5.61866
4.55958
3.68627
2.97482
2.40276
1.94925
1.5948
1.32147
1.11329
0.956745
0.840774
0.756267
0.695891
0.653898
0.625968
0.609052
0.601287
0.60196
0.611589
0.632105
0.667202
0.722873
0.808193
0.936373
1.12616
1.40362
1.8043
2.37587
3.181
4.30052
5.8364
7.91441
10.6858
14.3277
19.042
25.0526
32.6016
41.9466
53.3544
67.0866
83.3894
102.498
124.645
150.028
178.638
209.756
241.072
268.2
286.048
292.295
289.849
284.589
280.687
279.49
280.997
282.587
277.176
258.704
227.973
191.021
153.967
120.407
91.6553
67.8758
48.8058
34.0034
22.9289
14.9871
9.54724
5.99005
3.77332
2.46106
1.72494
1.33319
1.13528
1.04063
0.997628
0.978734
0.970616
0.967066
0.965311
0.964238
0.963413
0.962663
0.961947
0.961296
0.960771
0.960478
0.960549
0.961154
0.962488
0.964754
0.967948
0.971546
0.974702
23.6934
24.2367
24.7159
25.1437
25.5225
25.8547
26.1724
26.5444
27.0371
27.6858
28.491
29.4196
30.3824
31.2506
31.9476
32.4527
32.7372
32.7712
32.5627
32.126
31.5182
30.8896
30.4257
30.2863
30.5869
31.3903
32.6991
34.4522
36.5272
38.7094
40.6496
42.0464
42.8527
43.1388
42.9063
42.1177
40.7635
38.7973
36.2622
33.3942
30.4885
27.7901
25.4842
23.7191
22.6094
22.2357
22.638
23.8127
25.7155
28.2671
31.3604
34.864
38.6312
42.5009
46.2329
49.3512
51.3191
52.0242
51.8483
51.2114
50.2673
49.0039
47.3721
45.1674
42.2024
38.6304
34.7896
30.9463
27.244
23.7546
20.5226
17.5828
14.9636
12.6865
10.7659
9.20984
8.02023
7.19496
6.73059
6.62507
6.87951
7.49768
8.4861
9.85203
11.6019
13.7392
16.2642
19.1747
22.4656
26.1267
30.1419
34.4893
39.1422
44.0725
49.2522
54.6516
60.1827
65.5563
70.1697
73.2617
74.3558
73.6359
71.8472
69.7937
67.9262
66.3422
64.9906
63.7329
62.0486
59.238
55.0901
50.001
44.5719
39.2672
34.3289
29.8364
25.7878
22.1558
18.913
16.035
13.4994
11.2837
9.36495
7.71886
6.32041
5.14518
4.1691
3.36798
2.71857
2.19924
1.78984
1.47156
1.2273
1.04211
0.903646
0.801729
0.728059
0.67603
0.64056
0.617953
0.605772
0.602786
0.609007
0.625828
0.656311
0.705647
0.781841
0.896662
1.06688
1.3159
1.6757
2.18926
2.91324
3.92088
5.30495
7.1803
9.68573
12.9847
17.2645
22.7341
29.6204
38.1652
48.6216
61.2443
76.2749
93.94
114.462
138.052
164.812
194.396
225.262
253.91
275.353
285.846
286.175
281.449
276.805
274.505
274.992
277.254
275.985
263.899
238.659
204.481
167.793
133.247
102.972
77.5066
56.7353
40.3061
27.7417
18.4988
11.9901
7.60995
4.7943
3.07022
2.06808
1.51549
1.22589
1.08181
1.01391
0.98323
0.969734
0.963811
0.961036
0.959493
0.958429
0.957551
0.956768
0.956079
0.955537
0.955216
0.955223
0.955691
0.956764
0.958565
0.961188
0.964359
0.967412
0.969656
23.6887
24.2279
24.704
25.1299
25.5069
25.8386
26.1613
26.545
27.0533
27.7173
28.535
29.4682
30.4226
31.2712
31.9467
32.4299
32.6905
32.7017
32.4747
32.0245
31.4174
30.8104
30.3872
30.3026
30.6659
31.5328
32.8976
34.693
36.7866
38.9474
40.8169
42.1247
42.8545
43.0712
42.7653
41.9011
40.4687
38.4212
35.8306
32.9518
30.0777
27.4431
25.2271
23.5731
22.5908
22.3547
22.8975
24.2082
26.2353
28.8936
32.0709
35.6304
39.4227
43.2794
46.9181
49.8161
51.4927
51.965
51.6664
50.9631
49.9545
48.6143
46.8744
44.4991
41.369
37.7078
33.8515
30.0351
26.3801
22.9496
19.7856
16.9222
14.3867
12.1994
10.3735
8.91576
7.82733
7.10573
6.74789
6.75265
7.12188
7.86011
8.97407
10.4708
12.3554
14.6299
17.2929
20.3405
23.7656
27.5553
31.6908
36.148
40.8983
45.9132
51.165
56.6129
62.1111
67.2516
71.3327
73.647
73.9571
72.7123
70.7456
68.7452
66.9974
65.5166
64.2314
62.8822
60.8058
57.4402
52.8525
47.5766
42.1809
37.0337
32.2985
28.0117
24.1558
20.7025
17.6257
14.9025
12.5108
10.4281
8.63131
7.09574
5.7967
4.71013
3.81192
3.07818
2.48645
2.01587
1.64695
1.3616
1.1436
0.979168
0.856967
0.767671
0.703752
0.659306
0.629919
0.612525
0.605333
0.607816
0.620823
0.646793
0.690156
0.757924
0.860529
1.01295
1.23614
1.55886
2.0198
2.67013
3.57617
4.82221
6.513
8.77576
11.7611
15.6427
20.6152
26.8912
34.698
44.2743
55.8648
69.7081
86.0249
105.027
126.924
151.877
179.781
209.698
239.021
263.292
277.973
281.825
278.466
273.422
270.105
269.482
271.355
272.625
266.232
247.134
216.943
181.551
146.508
114.909
87.8384
65.3962
47.3285
33.2312
22.6131
14.9347
9.62095
6.10363
3.88003
2.54179
1.77734
1.3623
1.14787
1.04276
0.993776
0.971674
0.96186
0.957386
0.955108
0.953695
0.952643
0.951767
0.951028
0.950448
0.950085
0.950024
0.950366
0.951228
0.952706
0.954866
0.957621
0.960521
0.962936
0.964416
23.6838
24.219
24.692
25.1162
25.4912
25.8228
26.1512
26.5471
27.0709
27.7499
28.5795
29.5162
30.4606
31.2893
31.9436
32.4048
32.6417
32.6308
32.3861
31.9236
31.3193
30.736
30.3552
30.3262
30.7521
31.6816
33.1007
34.9354
37.0435
39.176
40.9703
42.1905
42.8463
42.9938
42.614
41.6749
40.1634
38.0367
35.3968
32.5148
29.6779
27.1116
24.9891
23.449
22.5961
22.4984
23.1811
24.6258
26.774
29.5348
32.7904
36.3999
40.2105
44.0422
47.5623
50.2167
51.6065
51.872
51.4701
50.7032
49.6265
48.2069
46.3442
43.7916
40.5114
36.7808
32.9217
29.138
25.533
22.1634
19.0696
16.2845
13.8345
11.7386
10.0088
8.65086
7.66492
7.04844
6.79886
6.91586
7.40206
8.26257
9.50426
11.1335
13.1541
15.5661
18.3666
21.5501
25.107
29.0219
33.2733
37.8348
42.677
47.7707
53.0874
58.5621
63.9652
68.7632
72.2015
73.7063
73.3155
71.6903
69.6599
67.7541
66.1227
64.7301
63.4702
61.913
59.35
55.452
50.527
45.1663
39.8661
34.9012
30.3712
26.283
22.6119
19.33
16.4129
13.8386
11.5851
9.62984
7.94929
6.51876
5.31399
4.31101
3.48568
2.81474
2.27655
1.85096
1.51908
1.26362
1.06934
0.92363
0.81606
0.738122
0.683033
0.645582
0.622021
0.609945
0.60826
0.617245
0.638724
0.676397
0.736343
0.827766
0.963993
1.16377
1.45289
1.86617
2.44977
3.26369
4.38441
5.9074
7.94909
10.6481
14.1652
18.6816
24.3964
31.5232
40.2867
50.92
63.6558
78.7137
96.2964
116.605
139.824
165.996
194.619
223.891
250.122
268.594
276.439
275.339
270.475
266.301
264.531
265.492
267.769
265.827
252.976
227.841
194.86
159.993
127.375
98.8198
74.7583
55.0629
39.4071
27.3596
18.4269
12.0753
7.75112
4.93384
3.18131
2.14457
1.56171
1.24964
1.09063
1.01373
0.978106
0.962002
0.954708
0.951204
0.949257
0.947946
0.946937
0.946119
0.945486
0.945076
0.944944
0.945173
0.945866
0.947102
0.948914
0.95129
0.953956
0.956412
0.958202
0.959065
23.6786
24.2099
24.6799
25.1025
25.4757
25.8076
26.1422
26.5505
27.0899
27.7835
28.6242
29.5633
30.4963
31.3048
31.9382
32.3775
32.5909
32.5587
32.2968
31.8233
31.2241
30.6667
30.3297
30.357
30.8455
31.8366
33.3078
35.1789
37.2969
39.3943
41.11
42.2444
42.8282
42.9065
42.4524
41.4391
39.8479
37.6447
34.9625
32.0842
29.2899
26.7962
24.7707
23.3472
22.6254
22.6665
23.4884
25.0647
27.3307
30.1895
33.5178
37.1712
40.9929
44.7851
48.1597
50.5519
51.666
51.7513
51.2613
50.4317
49.2836
47.779
45.7781
43.0473
39.6347
35.8533
32.0017
28.2554
24.7031
21.3966
18.3749
15.6701
13.3074
11.3046
9.67249
8.41557
7.53349
7.02365
6.88414
7.11539
7.72076
8.70591
10.0773
11.8406
13.9978
16.5474
19.4846
22.8023
26.4884
30.5246
34.8872
39.5474
44.4756
49.6423
55.0138
60.4812
65.7078
70.0461
72.7543
73.464
72.4892
70.6233
68.6131
66.8207
65.2927
63.9739
62.6676
60.7783
57.6786
53.313
48.1597
42.8003
37.6397
32.8699
28.5427
24.6457
21.1518
18.0347
15.2713
12.8401
10.7192
8.8858
7.316
5.98529
4.86974
3.9453
3.18811
2.57565
2.08709
1.70287
1.4048
1.17639
1.00357
0.874746
0.780363
0.712698
0.665685
0.634824
0.617042
0.610635
0.61529
0.632213
0.66439
0.717026
0.798182
0.919672
1.09822
1.35694
1.72712
2.25034
2.98084
3.98797
5.35862
7.19923
9.6372
12.8211
16.9196
22.1189
28.6196
36.6334
46.3814
58.0871
71.9681
88.225
107.049
128.626
153.078
180.2
208.842
236.166
257.761
269.712
271.707
267.782
263.026
260.218
260.044
262.17
263.078
255.971
236.638
207.237
173.431
140.24
110.384
84.7792
63.4879
46.2701
32.7558
22.5029
15.0211
9.78652
6.2775
4.02583
2.64768
1.84553
1.40107
1.16619
1.0481
0.991625
0.965495
0.95359
0.948033
0.945193
0.943485
0.942279
0.941352
0.940646
0.940175
0.939974
0.940103
0.940644
0.941671
0.943221
0.945284
0.947698
0.950102
0.952069
0.953287
0.953615
23.6731
24.2007
24.6678
25.0888
25.4602
25.7928
26.1343
26.5554
27.1104
27.8182
28.6691
29.6093
30.5297
31.318
31.9306
32.3481
32.5381
32.4854
32.2069
31.724
31.1321
30.6027
30.3109
30.3951
30.9458
31.9973
33.5188
35.4231
37.5462
39.6016
41.2359
42.2869
42.8005
42.8093
42.2807
41.1935
39.5221
37.2462
34.5288
31.661
28.9144
26.4974
24.5722
23.268
22.6788
22.8591
23.8188
25.5244
27.9045
30.8567
34.2519
37.9429
41.7678
45.5032
48.7048
50.8221
51.6775
51.6083
51.0407
50.1478
48.9241
47.3272
45.1741
42.2695
38.7441
34.9283
31.093
27.3881
23.8909
20.6495
17.702
15.0795
12.8059
10.8978
9.36481
8.21035
7.43353
7.03195
7.00435
7.35195
8.07874
9.19051
10.6935
12.5922
14.8865
17.5732
20.6462
24.096
27.908
32.0613
36.5299
41.2834
46.2915
51.5252
56.9352
62.3453
67.2963
71.0608
72.9862
72.961
71.5389
69.555
67.6178
65.9393
64.5032
63.2281
61.773
59.4456
55.8097
51.0687
45.7908
40.5008
35.5095
30.9396
26.8088
23.0953
19.7716
16.8129
14.1975
11.9039
9.91017
8.19319
6.72878
5.49283
4.46151
3.61071
2.91711
2.35905
1.91637
1.57011
1.30277
1.09886
0.945448
0.831872
0.74941
0.691097
0.651599
0.627121
0.615303
0.615207
0.627406
0.654189
0.699923
0.771609
0.879668
1.03898
1.27021
1.60144
2.0701
2.72517
3.62947
4.86199
6.51996
8.72028
11.6001
15.3162
20.0425
25.9673
33.2908
42.2206
52.9725
65.7568
80.774
98.208
118.239
141.029
166.551
194.148
221.791
245.696
261.509
267.185
265.071
260.223
256.472
255.167
256.475
258.687
256.16
242.889
218.151
186.454
153.32
122.442
95.408
72.5723
53.8058
38.8072
27.1866
18.4987
12.2579
7.95769
5.11701
3.32151
2.23999
1.61997
1.28087
1.10388
1.01604
0.974319
0.954978
0.946032
0.941689
0.939324
0.937815
0.93673
0.935927
0.935381
0.935106
0.93514
0.935547
0.936394
0.937727
0.93953
0.941717
0.944009
0.946052
0.947508
0.948221
0.948116
23.6674
24.1915
24.6557
25.0751
25.4448
25.7786
26.1275
26.5618
27.1321
27.8538
28.7141
29.6541
30.5608
31.3287
31.9209
32.3164
32.4834
32.411
32.1167
31.6258
31.0435
30.544
30.2987
30.4404
31.053
32.1634
33.7332
35.6674
37.7903
39.7973
41.3485
42.3186
42.7632
42.7022
42.0991
40.9382
39.1864
36.8422
34.0969
31.2459
28.552
26.2157
24.3941
23.2116
22.7563
23.0757
24.1719
26.0041
28.4945
31.5352
34.9916
38.7133
42.5327
46.191
49.1932
51.0293
51.6473
51.4469
50.8089
49.8502
48.5488
46.8481
44.5312
41.4624
37.844
34.0083
30.1964
26.5365
23.0966
19.9225
17.0513
14.5131
12.3304
10.5187
9.08626
8.03564
7.36556
7.07394
7.16018
7.62623
8.47655
9.71708
11.3535
13.3882
15.8197
18.643
21.8502
25.4296
29.3641
33.63
38.199
43.0401
48.1223
53.4149
58.8379
64.122
68.6865
71.7781
72.9102
72.2479
70.5185
68.5137
66.6777
65.1057
63.746
62.4607
60.737
57.9023
53.7766
48.7648
43.453
38.2823
33.4769
29.1063
25.165
21.6276
18.4675
15.6615
13.1885
11.0271
9.15513
7.54916
6.18501
5.03889
4.08685
3.30498
2.67071
2.16317
1.7628
1.45125
1.2118
1.03008
0.894231
0.79445
0.722822
0.673126
0.640775
0.622699
0.617301
0.624498
0.645883
0.685018
0.747909
0.843692
0.985555
1.19194
1.48801
1.90742
2.49435
3.30566
4.41311
5.90539
7.88965
10.4923
13.8588
18.1516
23.5478
30.2354
38.4118
48.2794
60.0445
73.9038
90.0398
108.625
129.827
153.726
180.013
207.337
232.696
251.825
261.442
262.001
257.748
253.302
250.927
251.114
253.392
253.954
246.324
227.07
198.613
166.358
134.875
106.581
82.2737
61.9914
45.5098
32.4916
22.5391
15.2083
10.0213
6.49851
4.20413
2.7757
1.92845
1.44935
1.19042
1.05694
0.991432
0.96038
0.945909
0.939067
0.935592
0.933588
0.932265
0.931333
0.930691
0.930333
0.930278
0.930564
0.931254
0.932398
0.93398
0.935954
0.938111
0.940155
0.941775
0.942766
0.943062
0.942528
23.6615
24.1821
24.6436
25.0614
25.4294
25.7649
26.1219
26.5696
27.1552
27.8903
28.7592
29.6975
30.5895
31.3371
31.909
32.2827
32.427
32.3357
32.0262
31.5289
30.9584
30.4907
30.2931
30.4928
31.1669
32.3346
33.9506
35.9114
38.0284
39.9809
41.4479
42.3398
42.7164
42.5854
41.9079
40.6729
38.8412
36.4338
33.6678
30.8398
28.2034
25.9516
24.2368
23.1781
22.8579
23.316
24.5471
26.503
29.0998
32.2238
35.7355
39.4813
43.2848
46.843
49.6216
51.1773
51.5815
51.2701
50.5654
49.5381
48.1563
46.3386
43.8504
40.6308
36.9385
33.0955
29.313
25.7009
22.3207
19.2161
16.4233
13.9713
11.8814
10.1677
8.83729
7.89193
7.33015
7.15022
7.35226
7.93888
8.91491
10.2862
12.0573
14.2287
16.7971
19.7561
23.0957
26.8018
30.8547
35.2284
39.8922
44.8148
49.9654
55.305
60.7018
65.7731
69.8367
72.1844
72.5581
71.383
69.4755
67.5164
65.7902
64.3114
63.0092
61.628
59.5217
56.1574
51.6211
46.4425
41.1702
36.1534
31.5426
27.3661
23.6071
20.2387
17.236
14.5771
12.2412
10.2067
8.45129
6.95111
5.68229
4.6211
3.74349
3.02605
2.44706
1.98634
1.62487
1.34495
1.13081
0.96923
0.849279
0.762023
0.700316
0.658701
0.633345
0.621944
0.623734
0.639604
0.672332
0.726981
0.811492
0.937504
1.12143
1.38577
1.76076
2.28621
3.01353
4.00784
5.34996
7.13804
9.48845
12.5359
16.4319
21.3427
27.4457
34.9268
43.9786
54.7974
67.5777
82.5
99.7327
119.44
141.752
166.575
193.101
219.114
240.825
254.285
258.192
255.36
250.613
247.252
246.332
247.878
249.979
246.991
233.526
209.398
179.014
147.508
118.214
92.5407
70.7933
52.8446
38.418
27.1615
18.6728
12.5116
8.21423
5.33545
3.48668
2.35286
1.69
1.31973
1.12188
1.02115
0.972088
0.948817
0.937862
0.932533
0.929701
0.927996
0.926866
0.926105
0.925652
0.925505
0.925686
0.926232
0.927196
0.928591
0.930371
0.932393
0.934409
0.936126
0.937327
0.937915
0.937852
0.936859
23.6553
24.1726
24.6314
25.0477
25.4143
25.752
26.1175
26.5788
27.1793
27.9276
28.8041
29.7395
30.6158
31.3433
31.8949
32.2469
32.3689
32.2594
31.9355
31.4337
30.8772
30.4431
30.2943
30.5523
31.2873
32.5106
34.1706
36.1545
38.2597
40.1521
41.5347
42.351
42.6602
42.4585
41.7072
40.3978
38.487
36.0222
33.2426
30.4436
27.8692
25.7056
24.1005
23.1677
22.9834
23.5798
24.9439
27.0204
29.7193
32.9212
36.4823
40.2452
44.0203
47.4535
49.9882
51.2707
51.4862
51.0797
50.31
49.2099
47.7445
45.7957
43.1336
39.7793
36.0312
32.1915
28.4434
24.882
21.5636
18.5308
15.8185
13.4547
11.4593
9.84519
8.61834
7.77972
7.32783
7.26142
7.58128
8.29058
9.39437
10.8981
12.8049
15.1133
17.8182
20.9115
24.3812
28.2109
32.3778
36.8539
41.607
46.6052
51.8175
57.1852
62.4999
67.2561
70.7126
72.2824
71.9738
70.4223
68.4452
66.5712
64.9515
63.5516
62.2677
60.6809
58.1059
54.237
49.3876
44.1368
38.9611
34.1199
29.7034
25.7149
22.1309
18.925
16.0739
13.5568
11.3527
9.44008
7.79594
6.3965
5.21816
4.23704
3.4292
2.77198
2.24444
1.82699
1.50117
1.25002
1.05887
0.915549
0.810042
0.734226
0.681721
0.647862
0.62959
0.625426
0.63554
0.661931
0.708761
0.782857
0.89443
1.05803
1.29375
1.62871
2.09872
2.75024
3.64231
4.84853
6.45865
8.57972
11.3362
14.8694
19.3349
24.9003
31.7412
40.04
49.9832
61.7591
75.5483
91.5161
109.821
130.61
153.919
179.326
205.314
228.774
245.651
253.282
252.731
248.304
244.158
242.143
242.639
244.98
245.232
237.265
218.277
190.863
160.103
130.193
103.314
80.1703
60.788
44.9581
32.374
22.6776
15.467
10.3071
6.75666
4.40962
2.92354
2.02538
1.50712
1.22083
1.06962
0.993487
0.956528
0.938948
0.930546
0.926329
0.923997
0.922563
0.921632
0.921067
0.920819
0.920893
0.921313
0.92212
0.92334
0.924939
0.926823
0.928779
0.930563
0.931921
0.932758
0.933022
0.932573
0.931015
23.649
24.163
24.6194
25.034
25.3993
25.7397
26.1144
26.5894
27.2047
27.9656
28.8488
29.7798
30.6398
31.3472
31.8788
32.2091
32.3092
32.1823
31.8448
31.3402
30.7999
30.4011
30.3021
30.6186
31.4139
32.6912
34.3927
36.396
38.4832
40.3105
41.6093
42.3525
42.5946
42.3217
41.4974
40.1128
38.1245
35.6084
32.8223
30.0579
27.5499
25.4782
23.9855
23.1806
23.1327
23.8667
25.3616
27.5554
30.352
33.6263
37.2306
41.0034
44.735
48.017
50.2924
51.3151
51.3667
50.877
50.0418
48.8658
47.3105
45.217
42.3837
38.9128
35.1252
31.2976
27.5881
24.08
20.8258
17.867
15.2374
12.9637
11.0646
9.55172
8.42988
7.69952
7.35919
7.40818
7.84788
8.68194
9.91547
11.5532
13.5965
16.0416
18.8823
22.1083
25.7056
29.655
33.9314
38.5043
43.3409
48.4088
53.6738
59.0399
64.1985
68.5291
71.2922
72.0933
71.2106
69.4151
67.4489
65.678
64.1531
62.8182
61.4851
59.5767
56.4887
52.1782
47.1182
41.8743
36.8352
32.181
27.9559
24.1484
20.7324
17.683
14.9783
12.5977
10.5204
8.72437
7.18646
5.88296
4.79032
3.88448
3.14195
2.54093
2.06118
1.68361
1.39036
1.16538
0.995124
0.868406
0.776071
0.710789
0.666983
0.640785
0.62996
0.633933
0.65393
0.693234
0.757623
0.855984
1.00117
1.21106
1.50994
1.93001
2.51318
3.31295
4.39624
5.84508
7.75776
10.2493
13.4509
17.5086
22.58
28.8315
36.4356
45.5695
56.4135
69.1455
83.9309
100.923
120.271
142.075
166.169
191.604
216.015
235.662
247.048
249.511
246.175
241.578
238.556
237.939
239.665
241.626
238.292
224.815
201.407
172.339
142.358
114.512
90.0721
69.3049
52.0897
38.1731
27.2369
18.9176
12.816
8.50827
5.58231
3.67345
2.48181
1.7715
1.36639
1.145
1.02939
0.971693
0.943698
0.930302
0.923776
0.920397
0.918477
0.917298
0.91658
0.916222
0.91619
0.916487
0.917151
0.918208
0.919644
0.921391
0.923276
0.925091
0.926581
0.927609
0.928131
0.928072
0.927147
0.925029
23.6424
24.1533
24.6073
25.0202
25.3845
25.7281
26.1125
26.6015
27.2311
28.0042
28.8931
29.8184
30.6614
31.3491
31.8606
32.1693
32.2481
32.1044
31.7542
31.2488
30.7268
30.3649
30.3166
30.6917
31.5465
32.8761
34.6164
36.6353
38.6981
40.4561
41.6722
42.3444
42.5195
42.1752
41.2785
39.818
37.7546
35.1936
32.4079
29.6835
27.2462
25.2698
23.8922
23.2167
23.3056
24.1761
25.7996
28.1072
30.9969
34.3378
37.979
41.7537
45.4241
48.529
50.5356
51.3163
51.2273
50.6625
49.7604
48.5058
46.8511
44.6013
41.6044
38.0357
34.223
30.415
26.7478
23.2955
20.1078
17.2252
14.6804
12.4988
10.6978
9.28771
8.27241
7.65186
7.42482
7.59111
8.15273
9.11375
10.4789
12.252
14.432
17.0136
19.989
23.3454
27.0671
31.1323
35.5132
40.1772
45.0912
50.2228
55.5267
60.8474
65.7589
69.5543
71.5692
71.6537
70.3249
68.4027
66.4988
64.8324
63.3902
62.093
60.6149
58.2864
54.6872
50.0228
44.8492
39.675
34.7998
30.3351
26.2962
22.6627
19.4083
16.5097
13.9461
11.697
9.74147
8.0571
6.62046
5.40815
4.39641
3.56124
2.87984
2.33122
1.89573
1.55481
1.29126
1.09008
0.938841
0.827259
0.747014
0.691568
0.656178
0.637805
0.635101
0.648501
0.680433
0.735672
0.821872
0.950316
1.13688
1.40325
1.77834
2.29992
3.01642
3.98865
5.29146
7.01503
9.26554
12.1647
15.8488
20.4667
26.1757
33.1393
41.5258
51.5067
63.2546
76.9348
92.6988
110.691
131.04
153.733
178.242
202.899
224.541
239.379
245.319
243.914
239.42
235.556
233.844
234.553
236.908
236.892
228.743
210.154
183.81
154.484
126.031
100.442
78.3554
59.7883
44.5475
32.354
22.8843
15.7747
10.6293
7.0431
4.63762
3.08897
2.13559
1.5744
1.25771
1.08651
0.998072
0.954173
0.932852
0.922552
0.91743
0.914708
0.913142
0.912211
0.911713
0.911569
0.911754
0.912279
0.913176
0.914466
0.916071
0.917876
0.919681
0.921284
0.922477
0.923217
0.923463
0.923022
0.921549
0.918919
23.6358
24.1434
24.5954
25.0065
25.3699
25.7174
26.1119
26.6149
27.2586
28.0434
28.937
29.8552
30.6806
31.3488
31.8404
32.1275
32.1857
32.0258
31.664
31.1596
30.658
30.3346
30.3379
30.7715
31.6848
33.065
34.8413
36.8716
38.9037
40.5888
41.7239
42.3269
42.4351
42.0188
41.0506
39.5137
37.378
34.7788
32.0002
29.3211
26.9585
25.0807
23.8207
23.276
23.502
24.5077
26.2571
28.6748
31.6529
35.0546
38.7262
42.4936
46.0825
48.9857
50.7201
51.2801
51.0711
50.4362
49.4647
48.129
46.3634
43.9488
40.7998
37.1519
33.3268
29.5445
25.923
22.5289
19.4101
16.6059
14.148
12.0605
10.3594
9.05366
8.14641
7.63731
7.52543
7.81099
8.4967
9.5869
11.0846
12.994
15.3107
18.0283
21.1366
24.6217
28.4643
32.6407
37.1207
41.8702
46.8555
52.0436
57.3648
62.5791
67.1398
70.303
71.5535
71.0095
69.367
67.4122
65.5987
64.0299
62.6558
61.3467
59.6118
56.7987
52.7332
47.8136
42.6112
37.5538
32.8557
28.5794
24.7203
21.2539
18.1551
15.4021
12.9745
10.8521
9.01332
7.43561
6.09556
4.96976
4.0342
3.26527
2.64103
2.1412
1.74661
1.43924
1.20276
1.02329
0.889389
0.791671
0.722621
0.676538
0.64953
0.639438
0.645888
0.670453
0.716944
0.791857
0.905025
1.07048
1.30754
1.64212
2.10825
2.74967
3.6216
4.79229
6.34437
8.37562
10.999
14.3417
18.5434
23.7534
30.1267
37.8231
47.0056
57.8397
70.4884
85.1036
101.826
120.79
142.066
165.413
189.748
212.598
230.331
239.892
241.173
237.493
233.075
230.347
229.971
231.8
233.599
230.023
216.676
194.055
166.266
137.717
111.205
87.8918
68.0195
51.4735
38.0218
27.3762
19.2077
13.1543
8.82912
5.85145
3.87863
2.62545
1.86412
1.42102
1.1735
1.04112
0.973375
0.939812
0.923467
0.915479
0.91143
0.909239
0.907996
0.907312
0.907034
0.907103
0.907507
0.908263
0.909388
0.910861
0.912571
0.914358
0.916029
0.917376
0.918306
0.91879
0.918715
0.91779
0.915804
0.912731
23.6289
24.1333
24.5834
24.9927
25.3556
25.7076
26.1126
26.6296
27.2871
28.0829
28.9802
29.89
30.6976
31.3464
31.8181
32.0839
32.1221
31.9466
31.5742
31.0728
30.5936
30.3101
30.3657
30.8578
31.8287
33.2576
35.067
37.1043
39.0992
40.7089
41.7648
42.3003
42.3413
41.8529
40.8135
39.2
36.9957
34.3653
31.6002
28.9713
26.6874
24.9114
23.7713
23.3587
23.7215
24.8609
26.7335
29.2574
32.3186
35.7755
39.4707
43.2202
46.7047
49.3844
50.85
51.2124
50.9003
50.1977
49.1529
47.7341
45.8446
43.2611
39.9746
36.265
32.4382
28.687
25.1141
21.7807
18.7331
16.0096
13.6408
11.6493
10.0497
8.85002
8.05242
7.65647
7.6615
8.06827
8.87995
10.1005
11.7331
13.7791
16.2324
19.0849
22.3247
25.9353
29.8956
34.1786
38.7519
43.5806
48.6314
53.8658
59.1709
64.2003
68.3019
70.7599
71.272
70.2144
68.3817
66.4602
64.7467
63.2624
61.9396
60.5396
58.4408
55.1222
50.6652
45.5884
40.4264
35.5168
31.0023
26.9102
23.2242
19.9186
16.9699
14.3572
12.0609
10.0602
8.33347
6.85765
5.60954
4.56553
3.70157
2.99473
2.42389
1.96934
1.61243
1.33572
1.12392
0.964262
0.846235
0.761302
0.702767
0.665815
0.647429
0.646404
0.663452
0.70144
0.765765
0.86491
1.01121
1.22183
1.51993
1.93612
2.50989
3.29133
4.34258
5.73928
7.57142
9.94362
12.9743
16.7945
21.5456
27.375
34.4344
42.8788
52.8659
64.5541
78.095
93.6281
111.286
131.177
153.238
176.837
200.179
220.095
233.087
237.588
235.524
231.037
227.439
225.969
226.855
229.169
228.906
220.701
202.607
177.328
149.36
122.261
97.8598
76.7435
58.9254
44.2265
32.3926
23.131
16.1118
10.9754
7.35022
4.88366
3.26983
2.25823
1.65109
1.30134
1.10794
1.00557
0.953545
0.927777
0.915173
0.908936
0.905724
0.903985
0.903039
0.902598
0.902537
0.902815
0.903434
0.904406
0.90573
0.907342
0.909089
0.910796
0.912278
0.913374
0.914061
0.914288
0.913825
0.912399
0.909942
0.906483
23.622
24.1231
24.5716
24.979
25.3417
25.6986
26.1146
26.6457
27.3166
28.1228
29.0227
29.9228
30.7123
31.3421
31.7939
32.0384
32.0574
31.867
31.4851
30.9888
30.5339
30.2917
30.4002
30.9505
31.9777
33.4535
35.293
37.3325
39.2842
40.8164
41.7954
42.2645
42.238
41.6776
40.5673
38.8771
36.6087
33.954
31.2086
28.6347
26.4333
24.7621
23.7442
23.4645
23.9638
25.2352
27.228
29.8539
32.9931
36.4993
40.211
43.9298
47.2856
49.7241
50.9299
51.1183
50.7164
49.9464
48.8258
47.3185
45.2924
42.5406
39.1331
35.378
31.5586
27.8431
24.3215
21.0513
18.0774
15.4369
13.1593
11.2656
9.76945
8.67741
7.99103
7.70997
7.83392
8.36356
9.3031
10.656
12.4245
14.6072
17.1967
20.183
23.5519
27.285
31.3584
35.7429
40.4037
45.3064
50.4164
55.6811
60.9217
65.6725
69.2114
70.9247
70.7642
69.3208
67.4034
65.555