/*--------------------------------*- C++ -*----------------------------------*\
  =========                 |
  \\      /  F ield         | OpenFOAM: The Open Source CFD Toolbox
   \\    /   O peration     | Website:  https://openfoam.org
    \\  /    A nd           | Version:  9
     \\/     M anipulation  |
\*---------------------------------------------------------------------------*/
FoamFile
{
    format      ascii;
    class       volScalarField;
    location    "0";
    object      pMean;
}
// * * * * * * * * * * * * * * * * * * * * * * * * * * * * * * * * * * * * * //

dimensions      [1 -1 -2 0 0 0 0];

internalField   nonuniform List<scalar> 
97664
(
130657
130513
130265
129901
130088
130524
130609
130961
130752
130764
130419
129989
129626
129312
129049
128989
129107
129036
129073
129350
129870
130321
130449
130480
130737
131007
131043
130806
130692
130663
130732
130743
130566
130455
130389
130277
130151
129863
129310
128768
128920
129342
129733
129817
129775
129668
129686
129578
129656
129563
129531
129533
129488
129530
129538
129420
129195
128998
128792
128613
128485
128398
128388
128696
128773
128734
128555
128452
128408
128448
128347
128201
128273
128420
128532
128503
128281
127878
127438
127007
126488
125494
124158
122966
122142
122484
124729
126498
127675
128682
129595
130166
130288
130376
130466
130525
130591
130596
130470
130262
130011
129718
129468
129468
129530
129612
129670
129755
129818
129841
129803
129724
129595
129433
129348
129304
129300
129178
129026
128882
128716
128487
128131
127749
127431
127128
126984
127058
127234
126891
127333
127708
127720
127581
127404
127452
127807
127877
127828
127677
127599
127645
127627
127660
127558
127506
127477
127477
127520
127572
127600
127608
127563
127511
127498
127535
127609
127666
127666
127619
127550
127490
127429
127334
127214
127096
126987
126891
126775
126623
126457
126296
126136
125979
125779
125551
125352
125246
125184
125134
125222
125345
125673
125940
126143
126390
126396
126258
126176
126247
126323
126321
126375
126452
126571
126603
126590
126569
126599
126638
126657
126633
126593
126506
126382
126246
126119
126057
126000
125951
125963
125962
125948
125897
125819
125831
125781
125722
125656
125539
130651
130492
130264
129928
130090
130345
130548
130861
130710
130758
130360
129889
129575
129292
129027
128918
128978
129014
129173
129488
129953
130310
130472
130542
130855
131107
131082
130905
130796
130763
130801
130778
130583
130466
130388
130313
130204
129845
129266
128829
128894
129402
129805
129869
129842
129794
129758
129628
129730
129617
129590
129586
129525
129557
129540
129412
129196
128992
128766
128616
128426
128332
128473
128759
128792
128688
128495
128374
128451
128468
128386
128311
128430
128602
128715
128677
128441
128050
127636
127239
126632
125443
123824
122192
121362
121799
124150
126253
127745
128756
129580
130185
130348
130468
130537
130587
130571
130577
130429
130118
129872
129584
129506
129564
129630
129672
129697
129744
129790
129843
129830
129759
129634
129454
129310
129219
129136
129021
128906
128794
128680
128481
128188
127876
127636
127453
127306
127253
127267
126941
127754
127837
127778
127598
127407
127432
127672
127835
127805
127694
127618
127609
127595
127600
127550
127527
127507
127511
127552
127585
127615
127621
127593
127573
127597
127662
127712
127715
127666
127596
127530
127480
127410
127311
127211
127125
127021
126892
126765
126635
126499
126335
126198
125989
125710
125566
125469
125406
125390
125463
125656
125683
125851
126102
126281
126364
126264
126144
126222
126312
126339
126290
126340
126503
126620
126667
126649
126629
126664
126674
126672
126642
126586
126471
126366
126230
126162
126118
126093
126073
126058
126036
126005
125970
125945
125945
125894
125833
125756
125689
130616
130419
130261
129938
130022
130164
130490
130748
130712
130740
130322
129810
129496
129287
129046
128880
128902
129096
129280
129575
130034
130403
130542
130636
130940
131171
131178
130996
130865
130834
130837
130764
130556
130504
130481
130413
130225
129850
129294
128798
128968
129326
129851
129947
129942
129861
129818
129743
129785
129691
129663
129638
129579
129600
129572
129408
129165
128945
128749
128553
128306
128326
128599
128785
128754
128682
128461
128500
128509
128539
128476
128447
128571
128745
128850
128812
128583
128191
127765
127349
126672
125335
123524
121770
120614
121151
123614
125740
127699
128696
129583
130194
130423
130556
130598
130609
130551
130519
130232
129991
129793
129598
129598
129652
129713
129716
129710
129714
129744
129816
129836
129779
129658
129477
129312
129177
129021
128895
128791
128678
128576
128384
128116
127844
127638
127527
127444
127421
127370
127427
127965
127916
127816
127645
127485
127576
127794
127882
127850
127738
127660
127650
127630
127614
127581
127567
127564
127569
127595
127621
127641
127645
127633
127635
127676
127722
127738
127697
127629
127544
127482
127440
127366
127287
127223
127129
127008
126882
126775
126643
126482
126349
126264
126137
125991
125823
125679
125653
125640
125584
125829
125894
125913
126109
126208
126224
126083
126081
126323
126355
126349
126261
126258
126420
126611
126689
126714
126721
126731
126716
126700
126660
126602
126522
126399
126287
126246
126214
126192
126141
126083
126041
126020
125999
126022
126016
125996
125939
125887
125888
130630
130302
130252
129906
129986
130028
130414
130673
130732
130721
130262
129779
129448
129262
129031
128876
128893
129170
129311
129585
130084
130533
130681
130810
131097
131325
131295
131059
130911
130881
130866
130773
130680
130647
130573
130474
130236
129870
129279
128845
128985
129453
129881
130034
130027
129920
129875
129825
129835
129760
129726
129685
129646
129652
129607
129414
129165
128939
128725
128520
128295
128260
128551
128737
128813
128693
128315
128425
128585
128640
128576
128576
128704
128884
128991
128956
128729
128333
127899
127458
126710
125247
123239
121362
120170
120753
123213
125825
127576
128661
129623
130263
130524
130658
130670
130619
130583
130382
130206
129989
129755
129647
129681
129732
129785
129740
129699
129658
129666
129749
129805
129771
129658
129482
129331
129163
129008
128820
128723
128597
128496
128318
128062
127800
127606
127536
127526
127545
127586
127841
128048
127919
127805
127688
127583
127657
127929
127957
127917
127797
127716
127686
127645
127647
127620
127633
127644
127631
127634
127672
127676
127679
127672
127681
127704
127721
127704
127640
127541
127464
127436
127391
127332
127298
127235
127120
126996
126879
126764
126630
126481
126331
126180
126112
125991
125891
125857
125844
125848
125777
125888
126013
126073
126184
126259
126216
126116
126212
126366
126371
126330
126228
126238
126446
126600
126708
126736
126735
126731
126723
126696
126680
126627
126508
126417
126339
126292
126282
126241
126162
126086
126045
126029
126040
126069
126079
126085
126065
126059
126111
130651
130259
130246
129885
129948
129968
130398
130690
130752
130693
130223
129761
129387
129201
129041
128900
128955
129151
129277
129616
130168
130581
130788
130948
131271
131471
131371
131111
130944
130919
130904
130850
130844
130759
130656
130518
130291
129881
129298
128901
129127
129355
129951
130116
130031
130005
129932
129903
129888
129808
129769
129729
129707
129700
129666
129432
129186
128964
128722
128461
128234
128321
128614
128824
128756
128549
128293
128568
128680
128772
128720
128727
128833
129019
129129
129095
128891
128485
128054
127611
126805
125269
123167
121274
119933
120606
122985
125616
127418
128691
129736
130332
130612
130759
130739
130642
130553
130367
130185
129939
129751
129694
129760
129829
129838
129766
129683
129575
129562
129644
129723
129707
129611
129448
129309
129128
129028
128784
128692
128563
128463
128304
128070
127844
127678
127602
127632
127726
127894
128042
128057
127888
127798
127755
127685
127817
128027
128037
127981
127842
127761
127721
127676
127693
127684
127696
127699
127669
127671
127719
127709
127709
127697
127700
127701
127692
127642
127554
127431
127416
127407
127385
127339
127301
127230
127124
127014
126881
126756
126634
126505
126355
126217
126176
126123
126118
125966
125990
126015
125927
125937
126063
126206
126257
126302
126205
126207
126269
126385
126344
126277
126176
126216
126419
126575
126671
126700
126697
126692
126648
126633
126616
126578
126515
126427
126337
126343
126314
126257
126168
126095
126047
126045
126071
126107
126151
126178
126191
126220
126286
130612
130291
130253
129871
129938
129934
130432
130699
130726
130670
130199
129732
129283
129112
128977
128897
129020
129088
129301
129719
130263
130716
130830
130978
131305
131544
131477
131175
130985
130966
130956
130960
130960
130860
130729
130554
130296
129880
129346
128985
129182
129499
130056
130220
130198
130066
129993
129970
129953
129845
129803
129760
129757
129749
129690
129471
129201
128966
128747
128500
128321
128344
128486
128759
128888
128630
128298
128557
128802
128928
128889
128887
128979
129161
129273
129237
129056
128659
128261
127828
126961
125408
123213
121416
120130
120559
123047
125385
127580
128900
129787
130376
130721
130880
130829
130710
130472
130342
130070
129921
129781
129750
129842
129902
129867
129764
129572
129467
129431
129543
129628
129624
129539
129393
129247
129141
129027
128769
128699
128584
128474
128305
128093
127934
127808
127732
127785
127930
128071
128123
128037
127872
127838
127835
127795
127955
128086
128106
128027
127877
127808
127765
127725
127755
127754
127741
127738
127695
127709
127757
127736
127729
127710
127696
127677
127634
127537
127408
127391
127426
127424
127355
127321
127313
127236
127144
127031
126917
126795
126666
126546
126421
126381
126298
126151
126062
126043
126141
126133
126105
126029
126113
126225
126332
126331
126293
126268
126304
126327
126258
126194
126172
126283
126432
126544
126629
126675
126698
126691
126632
126591
126589
126584
126523
126415
126333
126323
126310
126228
126152
126078
126025
126037
126091
126158
126209
126259
126296
126353
126435
130559
130314
130267
129880
129930
129946
130480
130686
130697
130620
130138
129640
129186
129044
128946
128882
129066
129197
129385
129799
130386
130861
130923
131088
131434
131690
131559
131238
131048
131034
131028
131063
131053
130943
130792
130607
130350
129907
129355
129079
129273
129619
130050
130308
130256
130124
130048
130035
130009
129893
129830
129782
129790
129796
129716
129498
129233
128990
128721
128397
128228
128376
128484
128779
128707
128470
128245
128634
128911
129081
129055
129044
129131
129303
129407
129390
129196
128861
128505
128075
127165
125408
123417
121816
120495
120871
123179
125356
127880
129040
129814
130334
130676
130899
130915
130709
130458
130294
130046
129952
129826
129806
129872
129904
129862
129746
129536
129337
129331
129413
129474
129498
129446
129322
129161
129156
128962
128785
128718
128623
128492
128293
128102
128004
127905
127857
127935
128073
128147
128128
128022
127910
127924
127910
127890
128076
128144
128159
128055
127899
127845
127819
127790
127825
127816
127775
127764
127711
127745
127779
127757
127732
127703
127672
127644
127539
127412
127367
127419
127457
127449
127400
127380
127326
127211
127176
127013
126844
126727
126628
126540
126503
126477
126363
126268
126157
126122
126168
126188
126185
126129
126184
126270
126345
126342
126308
126257
126220
126206
126158
126155
126235
126321
126404
126468
126562
126638
126680
126671
126606
126558
126585
126565
126483
126359
126299
126331
126286
126211
126132
126058
125994
126025
126088
126196
126247
126319
126379
126458
126559
130502
130325
130278
129897
129929
129928
130521
130671
130630
130552
130077
129559
129154
129063
128969
128896
129113
129243
129459
129853
130464
130936
131031
131222
131548
131741
131580
131307
131126
131113
131101
131153
131130
131002
130850
130654
130361
129944
129406
129168
129297
129644
130112
130344
130326
130176
130100
130089
130064
129951
129856
129800
129805
129819
129731
129505
129281
129046
128781
128437
128234
128317
128481
128672
128960
128615
128253
128679
129056
129230
129183
129152
129259
129460
129562
129536
129370
129060
128760
128327
127414
125637
123717
122271
121142
121434
123567
125924
128043
129028
129679
130292
130724
131014
130912
130557
130472
130272
130133
130018
129876
129807
129821
129833
129785
129622
129363
129234
129209
129264
129334
129377
129350
129233
129087
129114
128875
128811
128729
128634
128487
128281
128112
128026
127961
127961
128040
128143
128150
128092
128048
127988
128006
127975
128025
128137
128215
128199
128063
127906
127875
127876
127861
127890
127863
127795
127771
127737
127777
127784
127765
127722
127677
127641
127574
127444
127359
127383
127475
127517
127503
127462
127360
127248
127177
127060
126875
126724
126612
126508
126563
126581
126506
126494
126455
126305
126156
126157
126226
126215
126186
126184
126261
126317
126309
126272
126196
126121
126129
126118
126226
126301
126325
126344
126365
126468
126598
126641
126622
126549
126512
126529
126500
126396
126281
126327
126314
126270
126183
126128
126066
126039
126070
126129
126222
126283
126362
126445
126544
126653
130448
130336
130286
129913
129916
129918
130481
130569
130575
130515
130045
129495
129143
129073
129013
128960
129118
129203
129453
129902
130549
131014
131128
131275
131574
131788
131701
131376
131187
131177
131156
131226
131190
131046
130910
130712
130413
129959
129469
129283
129405
129582
130256
130434
130374
130230
130145
130137
130095
130008
129892
129846
129810
129803
129740
129533
129325
129047
128847
128499
128242
128263
128359
128680
128623
128383
128391
128797
129216
129333
129277
129276
129413
129620
129733
129679
129587
129203
129032
128596
127637
125855
124085
122809
121844
121993
124026
126387
127997
128864
129804
130705
130954
131026
130931
130573
130483
130239
130182
130027
129885
129775
129747
129730
129623
129473
129296
129154
129129
129167
129248
129297
129261
129144
129037
129005
128815
128811
128744
128641
128461
128225
128090
128011
127999
128039
128111
128157
128115
128062
128130
128086
128041
128006
128115
128239
128286
128223
128066
127910
127896
127922
127913
127927
127891
127814
127774
127733
127784
127783
127765
127693
127636
127611
127494
127412
127368
127455
127520
127531
127479
127378
127285
127139
126956
126714
126704
126592
126295
126384
126322
126369
126429
126556
126509
126406
126250
126211
126228
126240
126192
126200
126190
126267
126265
126234
126174
126087
126085
126110
126313
126326
126326
126270
126267
126393
126572
126612
126581
126484
126450
126460
126416
126331
126320
126333
126313
126240
126178
126152
126091
126090
126101
126152
126267
126323
126417
126506
126612
126718
130396
130349
130292
129934
129896
129892
130324
130484
130488
130522
130034
129479
129168
129106
128951
128988
129047
129143
129452
129959
130632
131116
131193
131306
131618
131840
131734
131361
131224
131219
131191
131271
131234
131096
130980
130772
130438
130020
129491
129311
129391
129687
130235
130492
130418
130279
130189
130179
130136
130043
129934
129897
129843
129813
129747
129553
129340
129113
128799
128529
128320
128320
128355
128565
128913
128735
128281
128816
129252
129456
129380
129388
129555
129771
129889
129875
129721
129342
129311
128854
127912
126186
124568
123466
122591
122641
124583
126580
127802
128854
130252
130972
131112
131037
130898
130621
130437
130209
130145
130024
129893
129719
129663
129603
129440
129337
129216
129162
129129
129141
129174
129186
129131
129013
128929
128869
128778
128795
128723
128604
128424
128223
128064
127999
128027
128098
128159
128158
128099
128154
128187
128121
128055
128085
128192
128338
128338
128231
128064
127917
127915
127963
127970
127963
127905
127830
127759
127753
127807
127759
127746
127630
127609
127568
127449
127412
127412
127513
127518
127493
127400
127281
127117
126791
126742
126658
126492
126460
126444
126302
126117
126238
126295
126411
126491
126473
126370
126317
126286
126240
126201
126166
126157
126254
126237
126247
126164
126066
126053
126199
126345
126344
126307
126235
126234
126401
126550
126616
126538
126431
126428
126417
126385
126349
126328
126365
126313
126262
126240
126210
126166
126162
126165
126222
126316
126380
126469
126565
126662
126761
130300
130373
130296
129960
129878
129917
130229
130384
130451
130516
130056
129502
129206
129153
128950
129014
128995
129133
129549
130012
130689
131188
131213
131343
131614
131877
131733
131400
131228
131249
131203
131287
131272
131165
131048
130807
130470
130008
129545
129436
129459
129760
130137
130506
130470
130318
130235
130217
130168
130079
129971
129956
129880
129821
129769
129562
129370
129083
128883
128502
128322
128382
128412
128598
128707
128354
128298
128882
129434
129571
129466
129534
129713
129926
130044
130049
129819
129578
129527
129095
128206
126501
125049
124196
123356
123368
125059
126644
127935
129278
130380
130889
131111
131030
130872
130617
130458
130213
130154
130056
129845
129649
129474
129394
129339
129310
129264
129224
129187
129174
129108
129047
128979
128859
128784
128723
128703
128750
128682
128594
128406
128197
128005
128000
128055
128150
128201
128202
128141
128120
128195
128153
128100
128123
128250
128410
128365
128213
128047
127918
127929
128009
128029
127985
127920
127846
127752
127740
127767
127764
127690
127585
127618
127525
127447
127438
127490
127560
127526
127473
127364
127221
126998
126934
126855
126795
126694
126632
126624
126355
126101
125988
126018
126179
126532
126435
126436
126403
126393
126331
126246
126159
126136
126172
126294
126278
126193
126086
126111
126229
126341
126350
126316
126227
126232
126414
126591
126603
126529
126425
126430
126395
126378
126358
126377
126381
126316
126290
126277
126294
126261
126253
126257
126317
126386
126449
126536
126619
126704
126789
130267
130401
130302
129984
129879
129965
130155
130241
130479
130513
130012
129527
129213
129201
128976
129031
129057
129281
129646
130064
130747
131189
131253
131410
131730
131931
131791
131278
131218
131260
131184
131298
131321
131249
131111
130845
130482
130071
129611
129472
129509
129804
130235
130530
130515
130358
130277
130253
130186
130102
129999
129996
129913
129832
129752
129564
129364
129093
128759
128515
128350
128404
128497
128560
128794
128765
128363
128997
129590
129657
129610
129688
129862
130086
130246
130175
129977
129824
129661
129323
128492
126881
125593
124864
124144
124075
125471
126772
128265
129564
130412
130871
130967
130938
130818
130614
130412
130235
130166
130050
129765
129553
129354
129305
129255
129273
129290
129289
129247
129159
129010
128880
128792
128703
128639
128581
128622
128657
128628
128544
128328
128211
128028
128011
128091
128196
128259
128224
128173
128183
128227
128152
128056
128213
128332
128449
128367
128174
128013
127923
127993
128067
128066
127995
127943
127859
127760
127755
127769
127713
127609
127605
127615
127506
127524
127501
127583
127612
127547
127463
127344
127153
127049
127089
126999
126888
126808
126791
126721
126516
126325
126179
126150
126050
126112
126469
126495
126452
126488
126408
126288
126223
126199
126161
126270
126279
126213
126155
126153
126191
126299
126339
126335
126235
126291
126501
126633
126638
126557
126486
126433
126422
126423
126444
126436
126390
126332
126328
126350
126370
126364
126343
126368
126415
126463
126523
126596
126673
126739
126808
130195
130411
130313
130007
129910
129967
130087
130255
130512
130474
129980
129475
129168
129224
129016
129005
129214
129400
129688
130113
130789
131246
131323
131522
131732
131857
131694
131285
131234
131252
131132
131327
131382
131324
131162
130858
130540
130086
129685
129612
129569
129794
130272
130586
130558
130403
130319
130285
130217
130088
130022
130030
129929
129848
129789
129601
129386
129106
128760
128426
128213
128455
128566
128714
128737
128372
128406
129043
129624
129740
129613
129823
130011
130245
130434
130307
130150
129968
129803
129537
128770
127246
125959
125448
124824
124675
125800
127013
128451
129618
130308
130668
130719
130906
130857
130543
130402
130189
130139
129977
129710
129491
129275
129184
129168
129247
129336
129364
129295
129129
128925
128743
128681
128605
128541
128482
128525
128567
128592
128489
128325
128097
127989
128022
128113
128248
128295
128255
128253
128215
128188
128133
128088
128297
128417
128473
128349
128130
127995
127955
128030
128094
128077
127990
127952
127882
127780
127761
127724
127678
127616
127626
127600
127569
127595
127615
127682
127648
127568
127440
127260
127096
127187
127089
126943
126830
126913
126901
126750
126579
126478
126385
126357
126217
126046
126146
126397
126482
126403
126412
126315
126248
126214
126107
126234
126266
126196
126178
126163
126167
126257
126315
126335
126291
126411
126619
126698
126654
126576
126520
126468
126467
126499
126500
126473
126395
126361
126378
126428
126436
126442
126453
126486
126517
126560
126611
126666
126723
126780
126823
130156
130397
130321
130035
129959
129971
130102
130288
130498
130458
129889
129367
129026
129159
129066
129062
129288
129426
129676
130155
130825
131288
131411
131565
131791
131945
131735
131201
131258
131226
131062
131339
131433
131371
131195
130895
130540
130112
129703
129607
129623
129764
130252
130605
130610
130446
130359
130306
130242
130077
130028
130032
129931
129825
129749
129519
129369
129046
128752
128449
128190
128351
128568
128647
128802
128735
128378
129142
129744
129785
129745
129932
130125
130405
130527
130458
130309
130018
129944
129748
129056
127655
126388
125886
125376
125125
126063
127229
128570
129645
130111
130481
130765
130915
130858
130527
130378
130161
130103
129946
129622
129410
129174
129085
129119
129228
129363
129392
129316
129154
128883
128662
128617
128522
128465
128431
128497
128550
128516
128337
128131
128038
127986
128033
128147
128279
128276
128328
128301
128197
128144
127977
128182
128409
128471
128474
128321
128089
127978
127996
128078
128100
128063
127971
127951
127889
127774
127733
127691
127672
127621
127654
127657
127664
127701
127756
127729
127673
127558
127392
127153
127144
127142
127040
127053
126836
126816
126695
126893
126745
126490
126254
126523
126386
126134
126091
126141
126127
126449
126418
126284
126188
126185
126120
126119
126150
126196
126214
126186
126204
126252
126326
126428
126401
126548
126685
126684
126635
126586
126547
126481
126538
126584
126587
126519
126426
126424
126464
126493
126518
126539
126558
126557
126606
126632
126673
126714
126767
126804
126836
130148
130304
130315
130059
130009
129981
130100
130353
130496
130383
129868
129299
128917
129073
129116
129125
129280
129387
129690
130203
130885
131307
131459
131606
131802
131822
131559
131255
131206
131141
130999
131370
131466
131395
131224
130899
130591
130132
129788
129650
129639
129733
130213
130631
130662
130493
130389
130311
130243
130080
130013
129999
129884
129794
129725
129637
129413
129016
128682
128358
128294
128344
128592
128741
128861
128357
128482
129221
129755
129829
129739
130047
130279
130592
130649
130633
130392
130080
130085
129945
129296
128012
126793
126234
125845
125491
126271
127353
128662
129673
129982
130580
130789
131004
130819
130519
130326
130142
130054
129832
129549
129328
129103
129066
129096
129215
129351
129350
129216
128978
128748
128601
128566
128429
128359
128336
128463
128513
128404
128215
127988
127898
127938
127989
128127
128234
128290
128373
128318
128168
128073
128097
128274
128449
128504
128450
128277
128068
127996
128032
128092
128119
128023
127963
127940
127871
127771
127777
127710
127703
127619
127709
127739
127729
127781
127814
127789
127698
127499
127067
126970
127150
127174
127204
126793
126620
126415
126363
126138
126045
126235
126201
126524
126403
126249
126038
126086
126062
126121
126297
126212
126105
126110
126076
126006
126088
126160
126246
126202
126204
126246
126435
126536
126545
126611
126639
126625
126621
126578
126551
126537
126635
126622
126599
126536
126483
126479
126512
126547
126613
126620
126613
126649
126678
126694
126741
126772
126807
126828
126843
130053
130163
130321
130071
130055
130026
130146
130388
130483
130348
129872
129313
128923
129011
129136
129162
129245
129306
129792
130259
130929
131334
131476
131622
131793
131813
131580
131165
131114
131123
131021
131324
131461
131373
131246
130940
130576
130139
129823
129678
129638
129723
130202
130706
130734
130533
130409
130305
130223
130074
129992
129966
129829
129762
129684
129485
129298
128854
128555
128150
128130
128374
128637
128806
128599
128623
128566
129248
129787
129863
129881
130138
130433
130757
130809
130750
130471
130208
130220
130123
129559
128337
127128
126495
126233
125797
126435
127389
128672
129631
129997
130767
130957
130830
130741
130431
130303
130103
130002
129756
129468
129240
129103
129057
129068
129175
129278
129265
129087
128848
128614
128553
128480
128327
128278
128229
128328
128432
128305
128086
127890
127792
127846
127930
128103
128212
128292
128362
128324
128140
128119
128009
128321
128456
128472
128413
128245
128051
128017
128044
128091
128050
127996
127953
127936
127911
127833
127795
127734
127665
127648
127753
127810
127814
127845
127846
127798
127638
127223
126867
127088
127200
127147
126810
126547
126744
126647
126623
126405
126222
125990
125928
125695
126277
126146
126040
126011
125876
125935
126218
126150
125996
126098
126056
125861
125864
126159
126251
126217
126205
126399
126474
126612
126586
126607
126572
126598
126602
126607
126597
126626
126680
126688
126666
126598
126541
126528
126569
126628
126662
126676
126698
126725
126736
126769
126791
126814
126838
126845
126847
130042
130185
130230
130084
130094
130063
130188
130381
130434
130328
129894
129372
129025
129066
129161
129145
129182
129389
129861
130311
130986
131362
131502
131641
131756
131663
131441
131103
131018
131074
131049
131205
131412
131358
131256
130929
130607
130128
129823
129694
129630
129671
130220
130786
130782
130563
130428
130323
130180
130049
129958
129897
129753
129687
129600
129544
129202
128903
128513
128047
127846
128244
128679
128871
128754
128469
128637
129356
129821
129864
129857
130166
130549
130840
130924
130855
130579
130328
130342
130285
129778
128670
127349
126718
126566
126064
126561
127370
128607
129579
130040
130820
130815
130800
130651
130394
130287
130065
129989
129650
129371
129176
129110
129064
129033
129079
129122
129040
128846
128619
128556
128563
128401
128269
128152
128051
128191
128210
128144
127973
127797
127593
127745
127902
128044
128151
128246
128375
128281
128097
128049
128131
128344
128404
128443
128393
128217
128019
128045
128052
128077
128042
127982
127968
127966
127933
127830
127836
127756
127717
127707
127812
127895
127896
127888
127821
127718
127523
127074
126944
127081
127091
126872
126642
126796
126792
126932
126546
126667
126381
126250
126013
125619
125836
125978
125872
125862
125771
125747
125932
125928
125932
126027
125975
125827
125837
126128
126260
126190
126275
126356
126457
126606
126576
126576
126537
126608
126648
126653
126667
126706
126726
126729
126675
126634
126569
126601
126608
126677
126689
126717
126752
126761
126802
126813
126835
126859
126858
126854
126846
130031
130224
130094
130097
130131
130083
130153
130303
130375
130348
129900
129435
129149
129100
129142
129115
129255
129547
129886
130350
131024
131402
131519
131615
131726
131694
131417
130995
130941
131001
131013
131230
131274
131283
131282
130895
130539
130113
129815
129716
129597
129619
130241
130809
130791
130589
130458
130355
130129
130006
129940
129836
129683
129672
129604
129452
129128
128704
128544
128054
127662
127958
128682
128827
128575
128573
128776
129372
129789
129874
129946
130271
130643
130901
130995
130953
130703
130401
130446
130421
129986
128962
127625
126907
126781
126332
126635
127319
128511
129542
130025
130628
130802
130606
130581
130318
130289
130049
129837
129577
129271
129137
129116
129074
129011
129000
128971
128872
128663
128624
128642
128502
128420
128230
128095
127923
127840
127985
128014
127851
127631
127423
127623
127856
127959
128061
128245
128330
128224
128171
128084
128154
128280
128388
128426
128359
128164
127996
128057
128072
128058
128000
128003
128004
127961
127908
127911
127841
127768
127724
127769
127869
127939
127935
127885
127763
127626
127431
126996
126824
126853
126803
126547
126446
126447
126323
126711
126506
126573
126387
126178
125983
125613
125214
125484
125804
125628
125594
125642
125733
125821
125557
125935
125949
125839
125724
126025
126238
126129
126260
126296
126526
126562
126590
126555
126530
126652
126713
126749
126760
126766
126745
126704
126694
126672
126641
126635
126641
126685
126697
126744
126772
126815
126835
126846
126870
126878
126869
126865
126850
129944
130249
130160
130105
130164
130078
130081
130301
130422
130347
129923
129494
129276
129203
129101
129200
129374
129621
129883
130370
131063
131426
131522
131632
131678
131543
131275
130865
130816
130817
130906
131234
131101
131188
131231
130886
130548
130100
129824
129725
129578
129636
130231
130792
130801
130616
130493
130390
130114
129938
129887
129757
129631
129635
129507
129440
129174
128741
128342
127983
127737
127880
128491
128706
128733
128727
128893
129327
129775
129961
130008
130368
130706
130951
131074
131033
130806
130435
130513
130509
130100
129138
127747
127119
126971
126501
126621
127208
128434
129531
129989
130436
130558
130503
130463
130282
130214
130026
129798
129439
129171
129114
129112
129058
128967
128880
128715
128595
128544
128458
128543
128476
128389
128237
128035
127909
127824
127691
127663
127594
127593
127337
127416
127751
128027
128089
128175
128271
128267
128147
128077
128054
128274
128373
128396
128288
128083
128016
128123
128055
128019
128021
128032
127981
127951
127976
127912
127864
127813
127779
127835
127902
127948
127928
127847
127678
127485
127266
126961
126672
126523
126303
125879
125800
125625
126259
125816
125858
125736
126201
125881
125650
125495
125162
124943
125294
125418
125426
125525
125507
125659
125527
125825
125915
125853
125684
125954
126191
126126
126176
126288
126378
126589
126587
126511
126575
126706
126806
126823
126800
126714
126697
126679
126691
126695
126672
126631
126650
126679
126699
126758
126801
126831
126849
126865
126887
126897
126878
126862
126849
129794
130218
130218
130117
130189
130031
130091
130301
130408
130361