/*--------------------------------*- C++ -*----------------------------------*\
  =========                 |
  \\      /  F ield         | OpenFOAM: The Open Source CFD Toolbox
   \\    /   O peration     | Website:  https://openfoam.org
    \\  /    A nd           | Version:  9
     \\/     M anipulation  |
\*---------------------------------------------------------------------------*/
FoamFile
{
    format      ascii;
    class       volVectorField;
    location    "0";
    object      UMean;
}
// * * * * * * * * * * * * * * * * * * * * * * * * * * * * * * * * * * * * * //

dimensions      [0 1 -1 0 0 0 0];

internalField   nonuniform List<vector> 
97664
(
(129.823 179.22 -1.09499e-16)
(131.781 173.467 -1.31653e-16)
(133.197 171.669 -1.20051e-16)
(132.248 172.004 -1.13857e-16)
(129.186 175.302 -9.46847e-17)
(125.774 180.04 -7.45667e-17)
(123.536 185.89 -3.15593e-17)
(125.198 187.633 7.41067e-18)
(126.151 187.96 2.77505e-17)
(126.239 186.372 2.78147e-17)
(125.416 183.421 6.16239e-18)
(123.722 178.184 -1.56666e-17)
(120.67 170.634 -6.68207e-17)
(117.696 161.671 -1.15926e-16)
(114.813 153.392 -1.34974e-16)
(111.313 147.846 -8.2266e-17)
(110.149 147.409 -3.55713e-17)
(111.665 151.598 -7.38027e-17)
(115.914 156.428 -1.61547e-16)
(119.782 160.868 -2.34732e-16)
(121.349 164.732 -2.75157e-16)
(119.29 166.667 -2.76083e-16)
(115.747 168.547 -2.52206e-16)
(109.889 170.851 -2.08198e-16)
(103.508 172.957 -1.29373e-16)
(98.5827 174.721 -4.0912e-17)
(96.2021 175.771 2.14379e-17)
(96.2851 176.179 3.73012e-17)
(97.8871 176.14 4.70256e-17)
(101.759 175.247 3.22125e-17)
(106.77 173.646 6.98807e-18)
(110.773 171.735 -2.58499e-17)
(114.232 169.895 -4.18037e-17)
(117.063 168.709 -5.29236e-17)
(119.686 169.173 -4.48585e-17)
(121.037 171.181 -2.06911e-17)
(121.738 173.773 -1.83765e-17)
(122.731 174.579 -7.44333e-17)
(123.322 171.752 -9.61307e-17)
(121.994 164.295 -1.56931e-16)
(119.886 153.201 -1.40417e-16)
(117.924 146.047 -9.51053e-17)
(118.497 149.132 -5.15607e-17)
(118.243 156.266 -9.30693e-17)
(117.961 164.431 -1.46105e-16)
(118.168 169.262 -1.69264e-16)
(119.303 169.478 -2.09535e-16)
(121.169 166.767 -2.10914e-16)
(122.721 164.777 -2.20459e-16)
(123.245 163.733 -1.70115e-16)
(123.303 163.14 -6.58033e-17)
(124.287 162.062 9.86227e-17)
(125.21 160.7 1.25074e-16)
(126.394 159.4 1.45129e-16)
(127.183 158.708 1.53061e-16)
(127.194 158.401 8.86633e-17)
(126.571 158.076 3.46724e-17)
(125.12 158.157 -8.3036e-17)
(123.352 158.983 -1.22188e-16)
(120.802 160.686 -1.00023e-16)
(118.289 162.759 -1.07593e-16)
(116.096 164.866 -6.67533e-17)
(113.829 167.104 -7.51507e-17)
(113.736 169.365 -5.13208e-17)
(114.129 171.925 7.62933e-20)
(115.236 174.296 6.02327e-17)
(115.393 177.013 1.08051e-16)
(115.825 177.783 1.05195e-16)
(116.599 178.147 3.39149e-17)
(116.961 178.488 1.08413e-17)
(116.794 178.993 2.82151e-17)
(116.217 180.056 -1.08838e-17)
(116.454 181.16 -5.44118e-17)
(117.314 182.71 -1.54405e-16)
(118.453 184.943 -2.37455e-16)
(119.743 188.04 -2.7433e-16)
(121.079 191.838 -2.63157e-16)
(122.635 195.753 -2.58439e-16)
(124.641 199.371 -2.11173e-16)
(128.147 202.373 -1.56861e-16)
(134.287 204.199 -1.29039e-16)
(141.78 204.793 -1.51268e-16)
(151.036 203.286 -1.8876e-16)
(162.119 195.653 -1.82059e-16)
(164.728 172.573 -2.24415e-16)
(159.586 142.08 -2.32571e-16)
(155.495 125.754 -1.69923e-16)
(144.518 123.649 -1.61269e-16)
(136.364 124.903 -1.26418e-16)
(130.352 126.676 -1.44007e-16)
(126.538 128.194 -1.37049e-16)
(123.464 131.379 -1.6486e-16)
(122.001 135.769 -1.28923e-16)
(120.939 140.188 -3.82627e-18)
(120.964 144.577 9.94593e-17)
(121.386 148.02 1.71395e-16)
(121.785 149.733 1.74987e-16)
(122.06 150.12 1.17109e-16)
(121.971 150.329 1.26623e-17)
(121.032 151.088 -5.97816e-17)
(120.222 151.224 -3.68736e-17)
(119.622 150.544 -7.06033e-18)
(118.846 149.735 -4.61487e-17)
(118.457 148.991 -1.53303e-16)
(118.382 148.549 -2.61782e-16)
(118.656 148.18 -2.63483e-16)
(119.346 147.742 -2.64955e-16)
(120.143 147.442 -2.42973e-16)
(120.978 147.714 -2.58799e-16)
(122.229 148.444 -2.79714e-16)
(123.814 149.351 -2.90477e-16)
(125.439 150.307 -2.99339e-16)
(126.957 151.056 -3.43117e-16)
(128.406 151.146 -4.40582e-16)
(129.737 150.462 -5.1829e-16)
(131.091 149.114 -5.46555e-16)
(131.871 147.914 -5.57493e-16)
(133.203 146.546 -4.25539e-16)
(134.315 145.089 -3.60156e-16)
(135.939 143.763 -3.07244e-16)
(138.033 142.659 -2.85652e-16)
(140.529 142.102 -2.88271e-16)
(143.344 142.203 -2.92945e-16)
(146.387 143.171 -2.06568e-16)
(149.745 145.308 -1.75174e-16)
(153.065 149.114 -2.59838e-16)
(155.577 154.281 -2.36778e-16)
(156.407 160.118 -2.36735e-16)
(154.699 165.352 -2.06315e-16)
(152.208 168.834 -1.99787e-16)
(144.821 172.374 -1.97225e-16)
(141.066 172.392 -2.67499e-16)
(138.291 170.972 -2.87254e-16)
(137.053 169.668 -3.45957e-16)
(135.243 169.899 -3.60907e-16)
(133.216 170.299 -3.85914e-16)
(131.739 169.524 -4.26415e-16)
(131.208 168.22 -3.55179e-16)
(130.825 167.527 -2.22603e-16)
(130.251 167.795 -9.76387e-17)
(129.61 168.063 1.52965e-17)
(129.272 167.753 9.62527e-17)
(129.009 167.483 2.1549e-16)
(128.828 167.391 2.73327e-16)
(128.453 167.796 2.64008e-16)
(128.393 168.022 3.91371e-16)
(128.424 168.209 4.04833e-16)
(128.452 168.439 4.47187e-16)
(128.345 168.787 4.83845e-16)
(128.26 169.205 3.67318e-16)
(128.094 169.762 1.90647e-16)
(127.953 170.356 1.97677e-16)
(127.808 171.074 7.123e-17)
(127.72 171.9 5.33884e-17)
(127.793 172.699 -5.73701e-17)
(128.052 173.425 5.13151e-17)
(128.466 174.086 2.14291e-16)
(128.946 174.73 2.79744e-16)
(129.438 175.409 2.52116e-16)
(129.879 176.165 3.79631e-16)
(130.335 176.963 3.53141e-16)
(130.87 177.718 1.65747e-16)
(131.573 178.363 4.10831e-17)
(132.273 179.049 -1.76329e-16)
(133.057 179.705 -2.93367e-16)
(133.744 180.358 -3.96301e-16)
(134.269 181.03 -2.49645e-16)
(134.615 181.59 -1.00234e-16)
(134.72 182.057 -5.82771e-17)
(134.443 182.461 8.0546e-17)
(133.489 182.787 1.62231e-16)
(131.758 182.726 2.55342e-16)
(129.023 181.757 1.20181e-16)
(124.796 179.614 8.4102e-19)
(118.98 176.059 -2.17936e-16)
(112.476 170.727 -2.21564e-16)
(106.044 162.953 -4.26797e-16)
(100.681 152.412 -9.2878e-17)
(97.7119 140.258 -3.85535e-16)
(98.3996 128.304 -1.75155e-16)
(101.22 119.012 1.22692e-17)
(106.73 113.617 3.55945e-16)
(111.59 113.35 9.0868e-17)
(117.302 117.517 1.55416e-16)
(122.618 123.403 4.17622e-17)
(126.456 131.816 -2.43261e-16)
(129.134 136.902 3.9205e-17)
(130.535 138.932 2.21183e-16)
(131.214 139.699 3.76328e-16)
(131.791 140.485 2.97467e-16)
(132.442 141.146 3.10583e-16)
(132.926 141.861 -3.41813e-16)
(133.421 142.662 -8.44913e-16)
(133.474 143.222 -1.00708e-15)
(133.787 143.533 -1.63545e-15)
(134.166 143.823 -1.29094e-15)
(134.671 144.046 -1.01243e-15)
(135.165 144.312 -2.22545e-16)
(135.598 144.66 1.47333e-17)
(135.917 145.275 1.24849e-15)
(136.2 145.947 6.01347e-16)
(136.567 146.57 -6.24434e-16)
(136.919 147.236 -7.9314e-16)
(137.455 147.847 -1.15155e-15)
(137.861 148.747 -3.68588e-16)
(138.246 149.753 -1.27103e-15)
(138.512 150.694 -1.18641e-15)
(138.742 151.521 -1.13243e-15)
(138.883 152.44 -1.25512e-15)
(139.178 153.402 -1.80957e-16)
(139.455 154.442 1.41101e-15)
(139.789 155.314 2.85383e-16)
(140.059 155.825 -8.6112e-16)
(140.385 156.363 -4.2015e-17)
(140.48 157.213 -1.95577e-15)
(140.42 158.157 -2.04787e-15)
(140.501 158.737 -3.06805e-16)
(140.643 159.299 7.13627e-16)
(140.844 159.884 2.49961e-15)
(141.192 160.68 9.2348e-16)
(130.78 179.513 -1.08773e-16)
(133.199 173.742 -1.29227e-16)
(134.141 171.612 -1.19166e-16)
(133.405 171.744 -1.09023e-16)
(130.65 174.809 -9.06547e-17)
(126.745 179.959 -6.62523e-17)
(123.37 185.811 -2.77621e-17)
(124.914 187.923 1.71495e-17)
(125.952 188.167 3.31675e-17)
(126.142 186.352 3.28681e-17)
(125.269 183.337 1.55414e-17)
(123.506 178.045 -2.01971e-17)
(120.554 170.369 -6.06808e-17)
(117.596 161.308 -1.16832e-16)
(114.735 152.94 -1.36779e-16)
(111.187 147.789 -7.6782e-17)
(109.88 147.704 -2.78365e-17)
(112.129 151.967 -7.65347e-17)
(116.639 156.974 -1.6857e-16)
(120.568 161.307 -2.38547e-16)
(121.781 164.752 -2.81208e-16)
(119.83 166.211 -2.80601e-16)
(116.161 167.768 -2.61089e-16)
(110.467 169.848 -2.2883e-16)
(104.3 172.009 -1.59869e-16)
(99.3533 173.947 -7.41787e-17)
(96.5114 175.406 -6.70387e-18)
(96.1794 176.136 2.71693e-17)
(97.7427 176.448 4.64403e-17)
(101.513 175.912 3.3025e-17)
(106.605 174.265 1.97693e-17)
(110.555 172.123 -1.78376e-17)
(113.76 169.981 -4.52825e-17)
(116.295 168.94 -5.83849e-17)
(118.834 169.483 -3.75323e-17)
(120.235 171.351 -2.64309e-17)
(120.812 173.874 -2.19326e-17)
(120.813 174.766 -2.21712e-17)
(120.727 171.725 -1.14042e-16)
(118.939 163.999 -1.60683e-16)
(116.778 152.765 -1.39709e-16)
(115.861 146.017 -7.07647e-17)
(117.149 149.054 -5.01779e-17)
(117.414 156.394 -1.04081e-16)
(117.61 164.319 -1.41981e-16)
(118.2 169.594 -1.76781e-16)
(119.255 169.762 -2.13215e-16)
(121.001 167.223 -2.35649e-16)
(122.736 164.999 -2.11719e-16)
(123.343 163.803 -1.44969e-16)
(123.53 163.216 -5.98076e-17)
(124.655 162.198 8.7752e-17)
(125.506 160.899 1.26464e-16)
(126.732 159.568 1.37639e-16)
(127.492 158.75 9.75413e-17)
(127.653 158.267 5.9137e-17)
(127.027 157.808 -1.53741e-17)
(125.849 157.838 -1.06933e-16)
(124.38 158.522 -1.55744e-16)
(122.222 160.147 -2.37511e-16)
(119.845 162.225 -1.9742e-16)
(117.424 163.923 -1.30832e-16)
(115.078 166.722 -1.38701e-16)
(113.446 169.623 -8.6946e-17)
(114.131 172.33 -2.50204e-17)
(115.424 174.728 5.14898e-17)
(115.981 176.742 8.83033e-17)
(115.591 178.371 9.2206e-17)
(116.062 178.504 9.2702e-17)
(116.686 178.544 5.51125e-17)
(116.519 179.072 -9.74213e-18)
(115.945 180 -2.75063e-18)
(116.116 181.132 -6.85307e-17)
(116.843 182.742 -1.72445e-16)
(117.928 185.005 -2.40621e-16)
(119.107 188.153 -2.82403e-16)
(120.265 192.009 -2.76507e-16)
(121.581 195.971 -2.47986e-16)
(123.389 199.58 -2.06046e-16)
(126.417 202.856 -1.50028e-16)
(131.611 205.492 -1.36439e-16)
(138.01 207.268 -1.45777e-16)
(146.182 207.05 -1.55899e-16)
(156.703 197.726 -1.8798e-16)
(156.188 171.44 -2.43839e-16)
(152.561 139.969 -2.30317e-16)
(148.492 122.67 -1.82167e-16)
(139.052 119.437 -1.55448e-16)
(131.83 121.901 -1.48515e-16)
(127.007 124.494 -1.42225e-16)
(123.44 126.516 -1.42456e-16)
(121.211 130.001 -1.73866e-16)
(119.922 134.951 -1.29676e-16)
(119.434 139.805 -2.91826e-17)
(119.632 144.572 6.91967e-17)
(120.16 148.189 1.51938e-16)
(121.094 149.731 1.76052e-16)
(121.196 150.274 1.28753e-16)
(121.116 150.356 1.89357e-17)
(120.201 150.942 -7.22953e-17)
(119.266 151.062 -6.06879e-17)
(118.753 150.517 -2.55814e-17)
(118.571 149.446 -7.7656e-17)
(118.541 148.642 -1.74792e-16)
(118.686 148.352 -2.66521e-16)
(118.988 148.182 -2.92581e-16)
(119.621 147.844 -2.78534e-16)
(120.521 147.538 -2.65115e-16)
(121.504 148.017 -2.74767e-16)
(122.961 149.071 -3.00816e-16)
(124.759 150.172 -3.25994e-16)
(126.527 151.104 -3.5181e-16)
(128.069 151.804 -4.05573e-16)
(129.476 151.852 -4.41485e-16)
(130.687 151.029 -5.37244e-16)
(131.936 149.501 -5.41838e-16)
(133.099 147.951 -5.12675e-16)
(134.093 146.771 -4.65738e-16)
(135.472 145.537 -3.85285e-16)
(137.235 144.453 -4.24818e-16)
(139.394 143.628 -3.61029e-16)
(141.789 143.299 -3.48795e-16)
(144.266 143.612 -2.70034e-16)
(146.919 144.73 -2.16776e-16)
(149.8 146.925 -2.17435e-16)
(152.514 150.419 -2.76795e-16)
(154.424 155.039 -2.51756e-16)
(154.714 159.871 -2.03859e-16)
(153.145 163.738 -2.43744e-16)
(150.672 166.317 -2.39936e-16)
(144.643 170.066 -2.79065e-16)
(141.096 170.453 -2.97403e-16)
(138.554 169.546 -3.39737e-16)
(137.475 168.442 -3.56431e-16)
(136.115 168.596 -4.02141e-16)
(134.144 169.293 -3.73029e-16)
(132.511 169.273 -2.79956e-16)
(131.673 168.013 -3.08428e-16)
(131.302 167.269 -1.16157e-16)
(130.802 167.322 -2.91515e-17)
(130.077 167.605 9.5536e-17)
(129.507 167.574 1.67211e-16)
(129.152 167.428 2.64035e-16)
(128.948 167.268 2.59297e-16)
(128.464 167.66 3.37401e-16)
(128.432 167.87 3.67252e-16)
(128.454 168.017 4.23767e-16)
(128.423 168.214 4.9244e-16)
(128.305 168.594 4.16805e-16)
(128.133 169.1 3.41113e-16)
(127.945 169.65 2.72046e-16)
(127.811 170.246 2.44096e-16)
(127.677 170.942 6.96433e-17)
(127.609 171.718 -7.93373e-17)
(127.705 172.501 -1.21523e-17)
(127.968 173.235 1.10538e-16)
(128.315 173.949 2.99647e-16)
(128.701 174.702 3.91782e-16)
(129.133 175.477 3.85716e-16)
(129.549 176.315 3.33854e-16)
(129.979 177.164 2.98514e-16)
(130.586 177.915 6.11285e-17)
(131.372 178.594 -5.48032e-17)
(132.177 179.284 -2.27479e-16)
(132.917 179.943 -3.68057e-16)
(133.586 180.519 -3.37941e-16)
(134.059 181.092 -1.42807e-16)
(134.348 181.536 -3.57505e-17)
(134.233 181.861 5.07208e-17)
(133.64 181.977 1.69697e-16)
(132.408 181.775 2.03449e-16)
(130.276 180.992 2.02629e-16)
(126.397 179.135 7.17547e-17)
(121.363 176.049 4.76514e-17)
(115.333 171.684 -2.03257e-16)
(108.894 165.889 -2.10252e-16)
(103.273 158.645 -2.89713e-16)
(98.8231 149.92 -3.29193e-16)
(97.3688 140.011 -4.92779e-16)
(98.0835 129.551 -2.2026e-16)
(100.681 121.112 2.99791e-16)
(105.22 117.229 3.55523e-16)
(112.13 117.081 1.49924e-16)
(117.533 121.399 1.50435e-16)
(122.925 127.42 -1.31219e-16)
(127.212 134.039 -1.76531e-16)
(129.495 137.871 6.25126e-17)
(130.568 139.269 2.06503e-16)
(131.007 140.236 2.96966e-16)
(131.501 140.965 2.98093e-16)
(132.08 141.676 2.04068e-16)
(132.856 142.197 -6.90847e-16)
(133.221 142.939 -1.24062e-15)
(133.277 143.367 -1.48304e-15)
(133.496 143.661 -1.73502e-15)
(133.836 143.984 -1.29455e-15)
(134.306 144.337 -8.4728e-16)
(134.755 144.781 3.91245e-16)
(135.186 145.146 6.7442e-16)
(135.547 145.655 1.24709e-15)
(135.869 146.318 -6.56765e-17)
(136.213 146.948 -1.04592e-15)
(136.583 147.6 -6.06393e-16)
(136.983 148.338 -1.10142e-15)
(137.385 149.224 -4.64289e-16)
(137.753 150.179 -1.33418e-15)
(137.954 151.151 -9.4764e-16)
(138.167 151.93 -1.24311e-15)
(138.362 152.827 -5.71737e-16)
(138.729 153.805 8.5462e-16)
(139.129 154.771 2.10016e-16)
(139.506 155.481 -2.64796e-16)
(139.741 156.036 -9.00147e-16)
(140.049 156.526 -4.07749e-16)
(140.125 157.284 -1.48701e-15)
(140.103 158.17 -5.33328e-16)
(140.115 158.819 1.40712e-15)
(140.332 159.366 1.40459e-15)
(140.591 159.936 2.05212e-15)
(140.941 160.622 9.45247e-16)
(131.656 179.752 -1.09963e-16)
(134.28 173.978 -1.28641e-16)
(135.028 171.553 -1.12979e-16)
(134.654 171.472 -1.04143e-16)
(131.442 174.445 -8.7212e-17)
(127.791 179.857 -6.8286e-17)
(123.497 185.71 -2.82659e-17)
(124.64 188.338 1.25189e-17)
(125.867 188.192 3.49643e-17)
(125.953 186.308 3.72844e-17)
(125.177 183.241 1.64675e-17)
(123.413 177.849 -1.22802e-17)
(120.483 170.063 -7.06047e-17)
(117.605 160.858 -1.23039e-16)
(114.653 152.563 -1.35603e-16)
(111.013 147.603 -6.41103e-17)
(109.891 147.883 -3.18107e-17)
(112.795 152.377 -9.0828e-17)
(117.365 157.445 -1.72103e-16)
(121.415 161.566 -2.40289e-16)
(122.58 164.351 -2.8092e-16)
(120.058 165.687 -2.84553e-16)
(116.31 166.91 -2.73647e-16)
(110.779 168.789 -2.37909e-16)
(105.415 170.803 -1.70527e-16)
(100.404 172.988 -9.99173e-17)
(96.8807 174.877 -3.65276e-17)
(96.1393 175.991 1.30182e-17)
(97.6683 176.708 4.03771e-17)
(101.301 176.491 3.96955e-17)
(106.226 174.843 1.68867e-17)
(110.445 172.416 -2.14301e-17)
(113.318 170.196 -4.33873e-17)
(115.304 169.368 -4.77873e-17)
(117.693 169.763 -4.31207e-17)
(119.186 171.497 -3.56007e-17)
(119.578 173.952 -2.44459e-17)
(118.756 174.766 -8.3354e-17)
(117.753 171.569 -1.09009e-16)
(115.7 163.556 -1.50595e-16)
(113.811 152.579 -1.27215e-16)
(113.869 146.236 -9.08067e-17)
(115.6 149.403 -7.2586e-17)
(116.634 156.452 -8.26247e-17)
(117.152 164.403 -1.43989e-16)
(118.159 169.725 -1.7054e-16)
(119.261 170.051 -2.05605e-16)
(120.943 167.583 -2.04323e-16)
(122.7 165.247 -1.92581e-16)
(123.458 163.906 -1.22454e-16)
(123.687 163.355 -3.89262e-17)
(125.013 162.36 8.6088e-17)
(125.752 161.141 1.25461e-16)
(127.059 159.808 1.23612e-16)
(127.786 158.851 1.12305e-16)
(128.032 158.282 5.1847e-17)
(127.714 157.734 -4.69349e-17)
(127.024 157.67 -1.92276e-16)
(125.814 158.353 -2.49349e-16)
(124.084 159.852 -2.23375e-16)
(122.005 161.668 -2.04367e-16)
(119.084 163.61 -2.234e-16)
(116.49 166.141 -2.06793e-16)
(115.235 168.93 -1.59479e-16)
(114.066 172.53 -7.1396e-17)
(114.786 175.171 -8.58373e-19)
(115.522 177.372 6.9522e-17)
(115.994 178.076 1.03351e-16)
(115.811 178.408 8.18393e-17)
(116.113 178.661 3.55267e-17)
(116.044 179.023 3.22958e-17)
(115.544 179.879 4.76353e-18)
(115.689 181.092 -5.58251e-17)
(116.316 182.774 -1.24079e-16)
(117.259 185.153 -2.15549e-16)
(118.218 188.361 -2.8558e-16)
(119.112 192.265 -2.82133e-16)
(120.201 196.294 -2.59381e-16)
(121.622 200.081 -1.97152e-16)
(124.148 203.769 -1.47477e-16)
(128.349 206.852 -1.16643e-16)
(133.547 209.16 -1.32562e-16)
(139.29 210.011 -1.69753e-16)
(146.859 198.754 -2.12449e-16)
(145.876 170.204 -2.47141e-16)
(142.963 138.169 -2.40509e-16)
(139.155 119.791 -2.06673e-16)
(132.565 116.538 -1.4138e-16)
(126.303 119.839 -1.79125e-16)
(122.708 122.752 -1.19934e-16)
(119.834 125.258 -1.35355e-16)
(118.485 129.172 -1.78893e-16)
(117.607 134.464 -1.39907e-16)
(117.63 139.676 -5.12859e-17)
(118.104 144.704 4.5215e-17)
(118.789 148.578 1.38442e-16)
(119.713 150.305 1.75449e-16)
(120.703 150.391 1.32052e-16)
(120.199 150.397 2.44789e-17)
(119.438 150.764 -8.48053e-17)
(118.403 150.89 -1.00785e-16)
(118.022 150.298 -7.97667e-17)
(118.235 149.151 -1.02601e-16)
(118.671 148.369 -2.02988e-16)
(118.914 148.259 -2.87243e-16)
(119.345 148.187 -3.00094e-16)
(119.942 147.971 -2.83323e-16)
(120.994 147.769 -2.63374e-16)
(122.157 148.426 -2.81047e-16)
(123.798 149.739 -3.02333e-16)
(125.733 151.007 -3.401e-16)
(127.59 151.932 -3.8245e-16)
(129.177 152.54 -4.39711e-16)
(130.621 152.502 -5.06613e-16)
(131.818 151.54 -5.74798e-16)
(132.938 149.88 -5.68473e-16)
(133.886 148.267 -4.99851e-16)
(135.144 147.078 -3.78139e-16)
(136.587 146.05 -3.42225e-16)
(138.327 145.197 -3.05701e-16)
(140.409 144.525 -2.9519e-16)
(142.559 144.375 -2.77111e-16)
(144.772 144.817 -2.51375e-16)
(147.03 146.058 -2.41212e-16)
(149.518 148.082 -2.74169e-16)
(151.711 151.257 -2.47001e-16)
(153.1 155.258 -2.18714e-16)
(152.951 159.07 -2.64618e-16)
(151.747 162.014 -2.28571e-16)
(148.746 164.703 -2.37357e-16)
(144.526 167.774 -2.67518e-16)
(141.183 168.457 -2.90158e-16)
(138.773 167.986 -3.21469e-16)
(137.804 167.094 -3.57141e-16)
(136.708 167.188 -3.59396e-16)
(134.864 167.925 -3.03855e-16)
(132.897 168.417 -2.96804e-16)
(132.137 167.562 -1.68377e-16)
(131.73 166.834 -9.10593e-18)
(131.259 166.781 8.2048e-17)
(130.42 167.116 1.44436e-16)
(129.767 167.202 2.26241e-16)
(129.248 167.197 3.06684e-16)
(129.024 167.056 3.38657e-16)
(128.579 167.354 2.77799e-16)
(128.462 167.632 4.09481e-16)
(128.395 167.78 4.91485e-16)
(128.313 167.981 4.01395e-16)
(128.255 168.342 3.43914e-16)
(128.014 168.889 2.7752e-16)
(127.779 169.501 1.81363e-16)
(127.63 170.13 3.24096e-17)
(127.522 170.823 -8.36107e-17)
(127.517 171.565 4.02469e-17)
(127.62 172.347 1.16584e-16)
(127.889 173.102 1.841e-16)
(128.168 173.903 3.59175e-16)
(128.492 174.73 3.86164e-16)
(128.788 175.616 3.02541e-16)
(129.258 176.44 3.46003e-16)
(129.719 177.339 2.17857e-16)
(130.273 178.189 -1.95207e-17)
(131.043 178.966 -1.67281e-16)
(131.952 179.616 -3.22647e-16)
(132.705 180.217 -3.40921e-16)
(133.349 180.746 -2.35437e-16)
(133.823 181.201 -5.39185e-17)
(133.993 181.488 8.76767e-17)
(133.764 181.437 9.80633e-17)
(132.978 181.062 1.78433e-16)
(131.264 180.239 1.76229e-16)
(128.143 178.697 1.56997e-16)
(123.783 176.161 4.69382e-17)
(118.467 172.339 -7.23727e-17)
(112.785 167.298 -2.87203e-16)
(107.063 161.526 -1.8647e-16)
(102.686 155.089 -5.38155e-16)
(99.4826 147.703 -4.0477e-16)
(98.2857 139.24 -4.31577e-16)
(98.5855 130.569 1.20311e-16)
(100.93 123.651 3.24931e-16)
(105.417 121.04 2.14888e-16)
(112.603 122.02 -1.98322e-17)
(118.619 125.313 3.28575e-17)
(124.131 130.971 -9.2316e-17)
(127.798 136.222 2.21863e-17)
(129.762 138.767 1.16607e-16)
(130.367 139.999 3.36569e-16)
(130.793 140.855 2.21431e-16)
(131.18 141.505 3.35261e-16)
(131.802 142.084 -1.33767e-16)
(132.543 142.58 -9.86867e-16)
(132.914 143.172 -1.04512e-15)
(132.869 143.691 -1.64255e-15)
(133.132 143.896 -1.89963e-15)
(133.402 144.276 -9.7716e-16)
(133.883 144.691 -1.78208e-16)
(134.34 145.15 8.51713e-16)
(134.788 145.55 6.56506e-16)
(135.174 146.048 6.79387e-16)
(135.536 146.658 -5.66559e-16)
(135.856 147.308 -9.5542e-16)
(136.162 148.016 -4.87548e-16)
(136.565 148.712 -1.10225e-15)
(136.988 149.478 -3.73906e-16)
(137.298 150.478 -1.52135e-15)
(137.49 151.504 -9.52013e-16)
(137.711 152.262 -9.9878e-16)
(138.002 153.171 9.1014e-16)
(138.39 154.114 6.87047e-16)
(138.814 155.027 -2.28063e-16)
(139.125 155.716 -6.28495e-16)
(139.388 156.181 -2.66506e-16)
(139.611 156.671 -5.89053e-16)
(139.703 157.358 -6.52993e-16)
(139.707 158.199 7.73327e-16)
(139.812 158.841 1.66858e-15)
(140.047 159.439 1.26573e-15)
(140.34 160.083 2.00708e-15)
(140.652 160.867 9.813e-16)
(132.55 180.053 -1.0937e-16)
(135.369 174.257 -1.26062e-16)
(135.844 171.492 -1.11928e-16)
(135.794 171.224 -9.90407e-17)
(132.39 174.038 -8.14953e-17)
(128.833 179.574 -6.02831e-17)
(123.693 185.665 -2.7732e-17)
(124.354 188.541 1.64873e-17)
(125.676 188.2 3.87178e-17)
(125.921 186.36 4.10544e-17)
(125.061 183.187 2.47781e-17)
(123.318 177.599 -1.50443e-17)
(120.488 169.674 -6.57178e-17)
(117.733 160.43 -1.29051e-16)
(114.643 152.102 -1.35007e-16)
(110.788 147.344 -5.88153e-17)
(109.92 148.07 -2.95689e-17)
(113.214 152.919 -9.3854e-17)
(118.065 157.901 -1.76249e-16)
(122.302 161.744 -2.41783e-16)
(123.159 164.124 -2.78272e-16)
(120.889 164.918 -2.84416e-16)
(116.614 166.121 -2.7899e-16)
(110.915 167.956 -2.46106e-16)
(105.37 170.052 -1.86529e-16)
(100.568 172.246 -1.17872e-16)
(97.4534 174.231 -5.52632e-17)
(96.1307 175.818 -4.02013e-18)
(97.6829 176.921 2.76526e-17)
(101.25 176.966 3.90735e-17)
(105.802 175.372 1.80585e-17)
(110.062 172.777 -2.30431e-17)
(112.899 170.592 -5.05201e-17)
(114.498 169.693 -5.5769e-17)
(116.527 170.088 -5.28773e-17)
(117.996 171.627 -3.58323e-17)
(118.394 173.879 -4.66575e-17)
(116.78 174.601 -3.94491e-17)
(114.98 171.317 -1.06886e-16)
(112.592 163.151 -1.48002e-16)
(110.831 152.22 -1.25415e-16)
(112.064 146.536 -6.24941e-17)
(114.691 149.443 -5.54148e-17)
(115.503 156.646 -8.9878e-17)
(117.001 164.462 -1.26444e-16)
(117.884 170.047 -1.75686e-16)
(119.301 170.324 -1.9981e-16)
(120.906 168.026 -2.14933e-16)
(122.683 165.498 -1.82139e-16)
(123.588 164.053 -1.14343e-16)
(123.949 163.486 -3.07327e-17)
(125.228 162.565 7.12067e-17)
(125.977 161.397 1.1071e-16)
(127.301 160.049 1.32091e-16)
(128.186 158.986 8.17793e-17)
(128.381 158.391 7.0298e-19)
(128.429 157.783 -1.22505e-16)
(128.181 157.59 -2.36727e-16)
(127.512 158.103 -2.84074e-16)
(126.131 159.481 -3.33688e-16)
(124.019 161.235 -3.07884e-16)
(121.217 162.811 -2.6068e-16)
(117.953 165.433 -2.50204e-16)
(116.021 168.697 -2.03129e-16)
(114.85 172.192 -1.09659e-16)
(114.452 175.229 -9.31067e-18)
(114.535 177.727 4.77078e-17)
(115.726 178.424 8.26607e-17)
(115.746 178.43 1.05203e-16)
(115.685 178.637 6.14111e-17)
(115.479 178.988 2.82473e-17)
(115.082 179.811 5.2722e-18)
(115.197 181.009 -4.58121e-17)
(115.644 182.78 -1.34475e-16)
(116.437 185.2 -2.23203e-16)
(117.173 188.441 -2.81194e-16)
(117.778 192.395 -3.00106e-16)
(118.566 196.539 -2.66334e-16)
(119.72 200.446 -2.02817e-16)
(121.894 204.275 -1.49419e-16)
(124.631 207.795 -1.38059e-16)
(128.083 210.527 -1.55387e-16)
(131.3 211.552 -1.78885e-16)
(134.489 199.236 -2.31039e-16)
(132.681 168.895 -2.53501e-16)
(130.108 136.491 -2.55233e-16)
(127.876 117.518 -2.05477e-16)
(124.269 114.473 -1.45398e-16)
(120.001 117.857 -1.69378e-16)
(117.539 121.303 -1.1802e-16)
(116.031 124.524 -1.44446e-16)
(115.576 128.612 -1.77231e-16)
(115.187 134.157 -1.39213e-16)
(115.646 139.657 -7.24853e-17)
(116.524 144.911 2.80795e-17)
(117.664 148.838 1.24352e-16)
(118.328 150.738 1.64952e-16)
(119.214 150.931 1.36501e-16)
(119.478 150.131 2.94149e-17)
(118.668 150.149 -8.78293e-17)
(117.589 150.468 -1.20102e-16)
(117.23 150.066 -1.02032e-16)
(117.617 148.986 -1.33575e-16)
(118.344 148.369 -2.18847e-16)
(118.96 148.244 -2.79809e-16)
(119.433 148.36 -3.01693e-16)
(120.129 148.274 -2.92084e-16)
(121.427 148.254 -2.59314e-16)
(122.877 149.068 -3.01973e-16)
(124.646 150.547 -3.5251e-16)
(126.707 151.877 -3.81038e-16)
(128.646 152.747 -4.33245e-16)
(130.207 153.277 -4.93351e-16)
(131.598 153.189 -5.45819e-16)
(132.778 152.174 -5.68995e-16)
(134.093 150.281 -5.06531e-16)
(134.773 148.702 -4.22086e-16)
(136.182 147.667 -3.65549e-16)
(137.718 146.589 -3.74589e-16)
(139.303 145.818 -3.63701e-16)
(141.207 145.256 -3.83235e-16)
(143.108 145.253 -3.78507e-16)
(145.044 145.84 -3.09797e-16)
(147.062 147.018 -2.90299e-16)
(149.016 148.954 -2.87297e-16)
(150.823 151.64 -2.93427e-16)
(151.642 155.145 -2.93202e-16)
(151.318 158.355 -2.47601e-16)
(150.193 160.824 -2.46889e-16)
(147.375 163.482 -2.59786e-16)
(144.396 165.593 -3.05535e-16)
(141.287 166.439 -3.46543e-16)
(138.921 166.398 -3.62515e-16)
(137.882 165.902 -3.68419e-16)
(136.868 166.061 -3.29287e-16)
(135.391 166.723 -2.69685e-16)
(133.346 167.516 -2.28792e-16)
(132.409 167.094 -1.57555e-16)
(131.98 166.388 -3.30032e-17)
(131.601 166.205 9.12253e-17)
(130.793 166.506 1.80331e-16)
(130.043 166.75 2.72144e-16)
(129.343 166.953 3.12305e-16)
(129.134 166.784 2.37941e-16)
(128.812 166.973 4.32757e-16)
(128.489 167.296 4.69147e-16)
(128.369 167.471 4.49363e-16)
(128.237 167.746 4.01567e-16)
(128.087 168.156 3.31531e-16)
(127.866 168.655 2.62102e-16)
(127.616 169.32 8.35093e-17)
(127.464 169.986 8.1082e-17)
(127.367 170.703 1.15111e-16)
(127.379 171.453 7.0674e-18)
(127.53 172.231 7.83653e-17)
(127.688 173.085 2.58733e-16)
(127.971 173.934 3.62367e-16)
(128.171 174.85 3.94895e-16)
(128.474 175.784 3.07538e-16)
(128.77 176.762 3.06627e-16)
(129.382 177.571 1.79317e-16)
(130.081 178.398 -1.15223e-17)
(130.666 179.311 -2.19023e-16)
(131.434 179.976 -3.48942e-16)
(132.252 180.484 -3.1566e-16)
(132.974 180.993 -1.9144e-16)
(133.417 181.253 3.07215e-17)
(133.433 181.267 5.49112e-17)
(132.97 180.883 5.83838e-17)
(131.849 179.947 1.03222e-16)
(129.696 178.349 8.717e-17)
(126.396 175.976 3.09767e-18)
(121.923 172.811 -1.65382e-16)
(116.703 168.789 -2.20814e-16)
(111.432 163.965 -4.01138e-16)
(106.956 158.424 -4.83184e-16)
(103.207 152.537 -5.66892e-16)
(100.831 145.763 -3.04266e-16)
(99.5721 138.328 -2.39263e-16)
(99.9503 131.008 3.25254e-16)
(102.482 125.791 2.21688e-16)
(107.493 124.959 4.00547e-17)
(113.531 126.463 -4.47554e-17)
(119.696 129.517 3.05654e-17)
(125.169 133.946 -8.19487e-17)
(128.167 137.554 -2.67375e-17)
(129.227 139.84 2.4169e-16)
(130.196 140.649 1.52865e-16)
(130.48 141.483 7.69253e-17)
(130.991 141.894 5.73855e-17)
(131.608 142.341 -4.57045e-16)
(132.277 142.678 -1.12819e-15)
(132.553 143.285 -1.3536e-15)
(132.607 143.748 -1.80754e-15)
(132.699 144.159 -1.62809e-15)
(133.086 144.439 -3.82487e-16)
(133.551 144.836 2.66718e-16)
(134.008 145.329 9.93987e-16)
(134.489 145.765 6.33077e-16)
(134.856 146.337 6.5381e-17)
(135.2 146.957 -1.10391e-15)
(135.543 147.599 -1.11031e-15)
(135.826 148.293 -5.57732e-16)
(136.262 149 -1.28033e-15)
(136.638 149.854 -8.672e-16)
(136.952 150.845 -1.55351e-15)
(137.135 151.818 -2.62077e-16)
(137.407 152.635 1.09857e-16)
(137.722 153.521 8.1286e-16)
(138.156 154.385 -9.5004e-17)
(138.472 155.255 -1.02193e-15)
(138.749 155.852 -2.84358e-16)
(138.972 156.313 -8.32727e-16)
(139.177 156.799 -4.37267e-16)
(139.311 157.434 2.24975e-16)
(139.335 158.23 1.42438e-15)
(139.516 158.882 1.61989e-15)
(139.776 159.516 1.27091e-15)
(140.076 160.202 1.74548e-15)
(140.312 160.951 5.82763e-16)
(133.451 180.199 -1.09953e-16)
(136.08 174.631 -1.24176e-16)
(136.6 171.438 -1.08015e-16)
(136.737 171.01 -9.43707e-17)
(133.206 173.651 -8.11573e-17)
(129.703 179.116 -6.25259e-17)
(124.07 185.438 -2.69828e-17)
(124.094 188.575 1.50505e-17)
(125.501 188.281 4.02839e-17)
(125.893 186.398 4.93185e-17)
(124.975 183.226 2.48713e-17)
(123.252 177.451 -8.75187e-18)
(120.535 169.515 -7.6758e-17)
(117.78 160.208 -1.35787e-16)
(114.568 151.661 -1.30911e-16)
(110.48 147.036 -4.99097e-17)
(109.955 148.296 -3.22972e-17)
(113.923 153.398 -1.03069e-16)
(118.825 158.354 -1.78431e-16)
(123.223 161.94 -2.44035e-16)
(123.69 163.832 -2.76145e-16)
(121.734 164.179 -2.70329e-16)
(117.74 165.035 -2.62427e-16)
(112.264 166.731 -2.33337e-16)
(106.669 168.873 -1.89265e-16)
(101.455 171.287 -1.42248e-16)
(97.8369 173.663 -8.32193e-17)
(96.1765 175.651 -2.37767e-17)
(97.6923 177.14 1.11555e-17)
(101.266 177.386 3.07989e-17)
(105.502 175.833 1.56443e-17)
(109.498 173.215 -2.23527e-17)
(112.404 171.009 -4.72247e-17)
(113.825 169.928 -4.51634e-17)
(115.442 170.296 -4.9824e-17)
(116.623 171.708 -4.15401e-17)
(116.993 173.737 -2.74986e-17)
(114.923 174.353 -7.83673e-17)
(112.41 170.986 -9.79667e-17)
(109.322 162.635 -1.26945e-16)
(107.509 152.091 -1.16797e-16)
(109.487 146.942 -8.9706e-17)
(113.378 149.939 -6.42793e-17)
(114.847 156.742 -8.02607e-17)
(116.614 164.945 -1.46131e-16)
(117.811 170.172 -1.63721e-16)
(119.246 170.654 -2.10163e-16)
(120.938 168.397 -1.96759e-16)
(122.633 165.81 -1.66989e-16)
(123.66 164.193 -9.0638e-17)
(124.209 163.613 -1.21088e-17)
(125.396 162.755 7.725e-17)
(126.17 161.661 1.12303e-16)
(127.31 160.361 1.11211e-16)
(128.405 159.207 8.7828e-17)
(128.891 158.512 -3.47881e-18)
(129.263 157.944 -1.39812e-16)
(129.405 157.737 -2.98341e-16)
(129.253 158.128 -3.659e-16)
(128.428 159.21 -3.22565e-16)
(126.312 160.64 -2.82255e-16)
(123.299 162.259 -3.15519e-16)
(120.309 164.618 -2.82839e-16)
(117.826 167.937 -1.95939e-16)
(115.711 171.79 -1.55377e-16)
(114.427 175.423 -6.21783e-17)
(114.095 178.227 3.00097e-17)
(115.267 178.669 9.2e-17)
(115.686 178.391 8.23353e-17)
(115.346 178.463 5.74059e-17)
(114.931 178.862 3.87315e-17)
(114.559 179.68 1.56193e-17)
(114.636 180.875 -4.43223e-17)
(115.02 182.662 -1.02563e-16)
(115.532 185.162 -2.05401e-16)
(116.012 188.429 -2.73001e-16)
(116.183 192.427 -2.70284e-16)
(116.685 196.63 -2.68803e-16)
(117.428 200.678 -2.15073e-16)
(118.999 204.525 -1.73395e-16)
(120.418 208.145 -1.52191e-16)
(121.783 210.977 -1.66537e-16)
(122.308 211.5 -2.33474e-16)
(120.994 198.028 -2.51049e-16)
(117.514 167.582 -2.44499e-16)
(115.67 135.519 -2.76125e-16)