/*--------------------------------*- C++ -*----------------------------------*\
| =========                 |                                                 |
| \\      /  F ield         | OpenFOAM: The Open Source CFD Toolbox           |
|  \\    /   O peration     | Version:  v2012                                 |
|   \\  /    A nd           | Website:  www.openfoam.com                      |
|    \\/     M anipulation  |                                                 |
\*---------------------------------------------------------------------------*/
FoamFile
{
    version     2.0;
    format      ascii;
    class       volScalarField;
    location    "0";
    object      alphat;
}
// * * * * * * * * * * * * * * * * * * * * * * * * * * * * * * * * * * * * * //

dimensions      [1 -1 -1 0 0 0 0];


internalField   nonuniform List<scalar> 
97664
(
0.00448663
0.00453954
0.00458103
0.0046098
0.00462931
0.00464147
0.00464916
0.00466001
0.00468359
0.00472692
0.00479138
0.00487367
0.00496238
0.00504365
0.00510534
0.00514154
0.00514639
0.0051148
0.00504665
0.00494789
0.00482347
0.00468695
0.00456012
0.00446517
0.00441927
0.00443288
0.00450857
0.0046397
0.00481237
0.00500346
0.00518348
0.00532153
0.00540192
0.00542499
0.00539029
0.00529454
0.00513775
0.00492394
0.00465113
0.00432869
0.00397998
0.00363178
0.00330869
0.0030312
0.0028167
0.00267787
0.0026216
0.00264825
0.00275186
0.00292133
0.0031422
0.00339863
0.00367429
0.00395387
0.00422139
0.00445822
0.00463825
0.0047391
0.00476187
0.00472874
0.00465975
0.0045604
0.00443188
0.00427535
0.00408216
0.00384026
0.00355548
0.00324538
0.00292615
0.00260886
0.00230108
0.00200854
0.0017361
0.00148801
0.00126776
0.001078
0.000920577
0.000796576
0.000706383
0.000649866
0.000626661
0.000636081
0.00067734
0.000749339
0.000850623
0.00097927
0.00113282
0.00130836
0.00150272
0.00171258
0.00193452
0.00216506
0.00240087
0.00263886
0.00287615
0.00311038
0.00333903
0.00355878
0.00376303
0.00393841
0.00406553
0.00412748
0.00412104
0.00406124
0.00397345
0.00387882
0.00378589
0.00369714
0.00361114
0.00352472
0.00341735
0.00326777
0.00307167
0.00284092
0.0025926
0.00234094
0.00209428
0.00185804
0.00163542
0.00142764
0.00123569
0.00106024
0.000901709
0.000760151
0.000635296
0.000526514
0.000432929
0.000353551
0.00028721
0.000232562
0.000188199
0.000152725
0.000124792
0.000103113
8.65126e-05
7.39627e-05
6.46087e-05
5.774e-05
5.27758e-05
4.92529e-05
4.68125e-05
4.5188e-05
4.41951e-05
4.37248e-05
4.37415e-05
4.42874e-05
4.54951e-05
4.76112e-05
5.10315e-05
5.6352e-05
6.44356e-05
7.64945e-05
9.41858e-05
0.000119709
0.000155889
0.000206203
0.000274719
0.000365893
0.000484182
0.000633505
0.000816609
0.00103454
0.00128639
0.00156996
0.00188075
0.00221476
0.00256759
0.00293539
0.00331553
0.00370616
0.00410465
0.00450494
0.00489208
0.00523648
0.00549628
0.00563613
0.00565615
0.00560249
0.00553495
0.00548696
0.00547003
0.00547945
0.00548432
0.00539999
0.0051615
0.00476883
0.00426824
0.00371239
0.00314025
0.00257697
0.00204141
0.00155373
0.00113101
0.000785055
0.000521045
0.00033384
0.000210275
0.000134229
9.05359e-05
6.69955e-05
5.50276e-05
4.92589e-05
4.6592e-05
4.53664e-05
4.47719e-05
4.44395e-05
4.42041e-05
4.40026e-05
4.38085e-05
4.361e-05
4.34039e-05
4.31908e-05
4.29744e-05
4.27609e-05
4.25584e-05
4.23782e-05
4.22357e-05
4.21514e-05
4.21439e-05
4.22311e-05
0.00448566
0.004538
0.00457893
0.00460725
0.00462669
0.00463888
0.00464711
0.00465937
0.00468504
0.0047308
0.00479722
0.00488054
0.00496878
0.0050481
0.00510714
0.00514034
0.00514168
0.00510655
0.00503553
0.00493474
0.00480947
0.00467439
0.00455166
0.00446295
0.00442466
0.00444631
0.00452955
0.00466642
0.00484231
0.00503293
0.00520809
0.00533809
0.00541012
0.00542534
0.00538218
0.00527777
0.00511277
0.00489069
0.00460994
0.00428243
0.00393285
0.00358788
0.00327161
0.00300412
0.0028022
0.00267769
0.00263639
0.00267753
0.00279409
0.00297417
0.00320284
0.00346413
0.00374152
0.00401981
0.00428251
0.00450937
0.00467325
0.00475573
0.00476409
0.00472207
0.00464618
0.00454017
0.00440464
0.00424049
0.00403569
0.00378175
0.00348863
0.00317443
0.00285413
0.0025378
0.00223251
0.00194378
0.0016764
0.0014345
0.00122141
0.00103963
0.000890866
0.000776035
0.000695391
0.000648707
0.000635561
0.000655179
0.000706662
0.00078877
0.000899858
0.00103778
0.00119985
0.00138295
0.00158379
0.00179897
0.00202497
0.00225834
0.00249575
0.00273419
0.00297095
0.00320362
0.00342953
0.00364445
0.00383938
0.00399796
0.00410035
0.00413398
0.00410321
0.00402893
0.00393645
0.00384208
0.00375048
0.00366256
0.00357721
0.00348467
0.00336105
0.00319101
0.00297816
0.00273792
0.00248669
0.00223649
0.00199369
0.00176297
0.00154649
0.00134532
0.00116029
0.000991967
0.000840604
0.00070614
0.000588144
0.000485868
0.000398379
0.000324627
0.000263351
0.000213164
0.000172662
0.000140472
0.000115273
9.58187e-05
8.09934e-05
6.98449e-05
6.15834e-05
5.55553e-05
5.12316e-05
4.81961e-05
4.61331e-05
4.48158e-05
4.40993e-05
4.39155e-05
4.42763e-05
4.52821e-05
4.71416e-05
5.02033e-05
5.49999e-05
6.23094e-05
7.32308e-05
8.92734e-05
0.000112451
0.000145367
0.000191254
0.000253948
0.000337721
0.000446968
0.00058572
0.000757047
0.000962508
0.00120181
0.00147286
0.00177265
0.00209636
0.00244007
0.00279976
0.00317233
0.00355581
0.00394816
0.00434515
0.00473604
0.0050974
0.00539122
0.00557703
0.0056387
0.00560608
0.005539
0.00548085
0.00545218
0.00545405
0.00547079
0.00543508
0.00526613
0.00493693
0.00447899
0.00394574
0.00338214
0.0028179
0.00227372
0.00176788
0.00131754
0.000938406
0.000638459
0.000417399
0.000265668
0.000168457
0.000110281
7.76837e-05
6.04821e-05
5.18906e-05
4.78037e-05
4.59143e-05
4.50206e-05
4.45592e-05
4.42697e-05
4.40424e-05
4.38349e-05
4.36301e-05
4.34212e-05
4.32088e-05
4.29964e-05
4.27901e-05
4.25978e-05
4.24292e-05
4.22947e-05
4.22097e-05
4.21885e-05
4.22269e-05
4.23235e-05
0.00448463
0.0045364
0.00457679
0.00460471
0.00462409
0.00463634
0.00464519
0.00465894
0.00468674
0.00473488
0.00480322
0.0048874
0.004975
0.00505226
0.00510862
0.0051388
0.00513662
0.00509798
0.00502428
0.00492156
0.00479567
0.00466233
0.00454396
0.00446165
0.00443102
0.00446065
0.00455122
0.00469355
0.00487217
0.00506177
0.00523151
0.00535333
0.00541713
0.00542448
0.00537286
0.00525972
0.00508671
0.00485629
0.00456792
0.00423591
0.00388621
0.0035451
0.0032362
0.00297919
0.00279021
0.00268018
0.00265384
0.00270924
0.00283835
0.00302853
0.00326444
0.00352993
0.00380853
0.0040848
0.00434177
0.00455726
0.00470405
0.00476869
0.00476401
0.00471396
0.00463119
0.00451835
0.00437596
0.00420327
0.0039863
0.00372098
0.00342061
0.00310314
0.00278232
0.00246735
0.00216488
0.00188029
0.00161828
0.00138286
0.0011772
0.00100365
0.000863763
0.00075829
0.000687361
0.000650665
0.000647707
0.000677613
0.000739359
0.000831543
0.000952324
0.00109932
0.0012696
0.00145991
0.00166682
0.00188686
0.00211647
0.00235218
0.00259078
0.00282923
0.00306507
0.00329575
0.00351825
0.0037269
0.00390982
0.00404825
0.00412378
0.00412986
0.0040784
0.00399401
0.00389959
0.003806
0.00371566
0.00362847
0.00354212
0.00343902
0.00329641
0.00310681
0.00288022
0.00263359
0.00238189
0.00213444
0.00189576
0.00167083
0.00146066
0.0012662
0.00108815
0.000926953
0.000782712
0.000655228
0.000543922
0.000447957
0.000366358
0.000297981
0.000241495
0.000195497
0.000158597
0.000129447
0.000106753
8.93226e-05
7.61028e-05
6.62179e-05
5.89373e-05
5.3662e-05
4.99135e-05
4.7321e-05
4.56114e-05
4.45993e-05
4.41812e-05
4.43358e-05
4.51304e-05
4.67364e-05
4.94561e-05
5.37626e-05
6.03544e-05
7.02248e-05
8.47454e-05
0.000105755
0.000135647
0.00017742
0.00023467
0.000311474
0.000412127
0.000540717
0.000700573
0.000893708
0.0011204
0.00137915
0.00166692
0.00198032
0.00231447
0.00266569
0.00303056
0.00340674
0.00379247
0.00418473
0.00457609
0.0049488
0.00527032
0.00549918
0.00560685
0.0056045
0.00554421
0.00548033
0.00543959
0.00543031
0.00544613
0.0054448
0.0053408
0.00508085
0.00467543
0.00417292
0.00362336
0.00306215
0.00251232
0.00199235
0.0015197
0.00111039
0.000774269
0.000517878
0.000334956
0.00021306
0.00013709
9.27781e-05
6.84889e-05
5.59036e-05
4.97094e-05
4.67857e-05
4.54161e-05
4.47411e-05
4.43624e-05
4.4097e-05
4.38718e-05
4.36586e-05
4.3447e-05
4.32349e-05
4.30253e-05
4.28239e-05
4.26379e-05
4.24755e-05
4.23452e-05
4.22558e-05
4.22172e-05
4.22273e-05
4.22804e-05
4.23285e-05
0.00448355
0.00453474
0.00457462
0.00460219
0.00462151
0.00463385
0.00464339
0.00465871
0.00468866
0.0047391
0.00480932
0.00489418
0.00498099
0.00505611
0.00510979
0.0051369
0.00513126
0.00508913
0.00501291
0.00490836
0.0047821
0.0046508
0.00453703
0.00446127
0.00443835
0.00447587
0.00457348
0.00472102
0.00490188
0.00508988
0.00525371
0.00536727
0.00542298
0.00542239
0.00536234
0.00524045
0.00505954
0.00482077
0.00452514
0.00418941
0.00384016
0.00350351
0.00320254
0.00295647
0.00278074
0.00268535
0.0026739
0.00274331
0.00288454
0.0030843
0.00332689
0.00359593
0.00387516
0.00414872
0.00439893
0.00460166
0.0047307
0.00477832
0.00476195
0.00470443
0.00461466
0.00449492
0.0043457
0.00416342
0.00393406
0.00365822
0.00335164
0.00303167
0.00271081
0.00239757
0.00209826
0.00181814
0.00156181
0.00133316
0.0011352
0.000970135
0.000839333
0.000743404
0.000682355
0.000655792
0.000663138
0.000703402
0.000775423
0.000877629
0.00100796
0.00116378
0.00134196
0.00153908
0.00175165
0.00197608
0.00220882
0.00244643
0.00268575
0.00292386
0.00315834
0.00338655
0.00360477
0.00380528
0.00397311
0.00408831
0.00413585
0.00411643
0.00404851
0.00395786
0.00386314
0.00377052
0.00368141
0.00359473
0.003504
0.00338626
0.00322347
0.00301634
0.00277918
0.00252879
0.00227799
0.00203377
0.00180056
0.00158165
0.00137796
0.0011903
0.00101926
0.00086516
0.000727968
0.000607326
0.000502531
0.00041268
0.000336744
0.00027348
0.000221511
0.000179437
0.000145889
0.000119542
9.91396e-05
8.35436e-05
7.17775e-05
6.3031e-05
5.66314e-05
5.20325e-05
4.88043e-05
4.66216e-05
4.52543e-05
4.45599e-05
4.44812e-05
4.50506e-05
4.64018e-05
4.87926e-05
5.26391e-05
5.85654e-05
6.74665e-05
8.05852e-05
9.95976e-05
0.000126697
0.000164656
0.000216836
0.000287105
0.000379629
0.000498502
0.00064725
0.000828276
0.00104241
0.0012887
0.00156462
0.00186663
0.00219118
0.00253356
0.00289051
0.00325929
0.00363808
0.00402468
0.00441401
0.00479319
0.00513584
0.00540275
0.00555751
0.00559339
0.00554871
0.00548233
0.00543077
0.00541013
0.0054174
0.00543395
0.00538482
0.00519633
0.00485246
0.00439007
0.00386112
0.0033073
0.00275569
0.00222546
0.0017339
0.00129732
0.000928938
0.000636624
0.000419791
0.000269891
0.000172683
0.000113639
7.99863e-05
6.18885e-05
5.26569e-05
4.81673e-05
4.60483e-05
4.50306e-05
4.45004e-05
4.41724e-05
4.39205e-05
4.36954e-05
4.34791e-05
4.32662e-05
4.3058e-05
4.28595e-05
4.26769e-05
4.25176e-05
4.23885e-05
4.2296e-05
4.2244e-05
4.22338e-05
4.22602e-05
4.22915e-05
4.22777e-05
0.00448241
0.00453303
0.00457241
0.00459969
0.00461896
0.00463142
0.00464172
0.00465868
0.00469082
0.00474347
0.00481552
0.00490089
0.00498674
0.00505965
0.00511064
0.00513464
0.00512556
0.00508002
0.00500143
0.00489519
0.00476879
0.00463983
0.00453089
0.00446182
0.00444663
0.00449197
0.00459632
0.00474878
0.00493137
0.0051172
0.00527466
0.00537992
0.00542768
0.00541908
0.00535058
0.00522002
0.00503126
0.00478416
0.0044817
0.00414293
0.00379481
0.00346323
0.0031707
0.002936
0.00277382
0.00269318
0.00269653
0.00277964
0.00293256
0.00314135
0.00339004
0.00366204
0.00394127
0.00421139
0.00445372
0.00464233
0.00475327
0.00478494
0.00475813
0.00469343
0.00459686
0.00446993
0.00431365
0.00412081
0.00387911
0.00359374
0.00328195
0.00296014
0.0026397
0.00232855
0.00203273
0.0017574
0.00150707
0.00128548
0.0010955
0.000939147
0.000817643
0.000731441
0.000680433
0.000664141
0.000681818
0.00073256
0.000814849
0.000926989
0.00106669
0.00123106
0.00141678
0.00162032
0.00183808
0.00206645
0.00230186
0.00254092
0.00278051
0.00301791
0.00325062
0.00347577
0.00368853
0.00387851
0.00402797
0.00411741
0.00413707
0.00409531
0.00401535
0.00392154
0.0038272
0.00373576
0.00364722
0.00356042
0.00346105
0.00332547
0.00314285
0.00292094
0.00267626
0.00242434
0.00217573
0.00193567
0.00170819
0.00149548
0.00129837
0.00111758
0.000953583
0.000806534
0.00067629
0.000562331
0.000463861
0.00037993
0.000309413
0.000250992
0.000203273
0.000164869
0.000134431
0.00011066
9.23458e-05
7.84125e-05
6.79608e-05
6.02398e-05
5.46326e-05
5.06446e-05
4.78934e-05
4.60996e-05
4.50774e-05
4.47309e-05
4.50553e-05
4.61458e-05
4.82163e-05
5.16288e-05
5.69373e-05
6.4945e-05
7.67751e-05
9.39512e-05
0.000118479
0.000152915
0.000200389
0.000264554
0.000349421
0.000459049
0.000597098
0.000766301
0.000967981
0.00120176
0.00146563
0.00175637
0.00207022
0.00240372
0.00275244
0.00311371
0.00348539
0.00386572
0.00425121
0.00463288
0.00499036
0.00528903
0.00548907
0.00556926
0.00554996
0.00548639
0.00542664
0.0053917
0.00538969
0.00540949
0.00540071
0.0052802
0.00500498
0.00459257
0.00409221
0.003551
0.00300151
0.00246497
0.00195867
0.00149894
0.00110023
0.000773256
0.00052175
0.000340728
0.000218874
0.000141836
9.61441e-05
7.06265e-05
5.71302e-05
5.03367e-05
4.70582e-05
4.54939e-05
4.47164e-05
4.4281e-05
4.39848e-05
4.3741e-05
4.35169e-05
4.33014e-05
4.30932e-05
4.28957e-05
4.27148e-05
4.25564e-05
4.24268e-05
4.23305e-05
4.227e-05
4.2245e-05
4.22501e-05
4.22703e-05
4.22622e-05
4.21866e-05
0.00448122
0.00453128
0.00457017
0.00459721
0.00461643
0.00462906
0.00464021
0.00465885
0.00469321
0.004748
0.00482179
0.0049075
0.00499224
0.00506288
0.00511118
0.00513204
0.00511951
0.0050707
0.00498985
0.00488205
0.00475577
0.00462945
0.00452555
0.00446328
0.00445584
0.00450889
0.00461971
0.00477675
0.00496058
0.00514365
0.00529433
0.00539131
0.00543124
0.00541456
0.00533754
0.00519851
0.00500185
0.00474648
0.0044376
0.00409659
0.00375026
0.00342432
0.00314076
0.00291785
0.00276949
0.00270367
0.00272168
0.00281817
0.00298231
0.00319957
0.00345382
0.00372816
0.00400672
0.00427262
0.00450582
0.00467911
0.00477194
0.00478888
0.00475276
0.00468097
0.0045776
0.00444338
0.00427958
0.00407535
0.00382167
0.0035278
0.00321171
0.00288867
0.00256907
0.00226036
0.00196836
0.00169816
0.00145415
0.00123991
0.00105816
0.000910762
0.000798761
0.000722462
0.000681648
0.000675749
0.000703914
0.000765098
0.000857615
0.000979569
0.00112842
0.00130104
0.00149392
0.00170345
0.00192596
0.0021578
0.00239541
0.00263548
0.00287493
0.00311122
0.00334172
0.00356307
0.00376875
0.00394535
0.00407324
0.00413529
0.00412847
0.00406828
0.00398031
0.00388543
0.00379179
0.00370159
0.00361351
0.00352392
0.00341168
0.00325646
0.00305561
0.002822
0.00257266
0.0023213
0.00207593
0.00184025
0.0016187
0.00141234
0.00122192
0.00104804
0.000891065
0.000751015
0.000627595
0.000520153
0.00042782
0.000349589
0.000284235
0.000230391
0.000186661
0.00015168
0.000124118
0.000102708
8.62906e-05
7.38661e-05
6.46019e-05
5.78055e-05
5.29139e-05
4.94825e-05
4.71773e-05
4.57652e-05
4.51077e-05
4.51602e-05
4.59785e-05
4.77325e-05
5.07322e-05
5.54655e-05
6.26496e-05
7.32966e-05
8.87879e-05
0.000110954
0.000142144
0.000185263
0.000243746
0.000321431
0.000422304
0.000550104
0.000707827
0.000897241
0.00111852
0.00137019
0.00164942
0.00195265
0.00227616
0.00261667
0.00297022
0.0033347
0.00370837
0.00408879
0.00446987
0.00483663
0.00516022
0.00540137
0.00552849
0.00554366
0.00549091
0.00542629
0.00538062
0.00536594
0.00537847
0.00539307
0.00533177
0.00512827
0.00477547
0.00431284
0.00379065
0.00324759
0.00270863
0.00219165
0.00171291
0.00128751
0.000927752
0.000641209
0.000427254
0.000277522
0.000179072
0.000118344
8.30977e-05
6.37605e-05
5.36757e-05
4.86555e-05
4.62373e-05
4.506e-05
4.4446e-05
4.40735e-05
4.37984e-05
4.3561e-05
4.33403e-05
4.31304e-05
4.29328e-05
4.27518e-05
4.25928e-05
4.24614e-05
4.23607e-05
4.22932e-05
4.22575e-05
4.22467e-05
4.22556e-05
4.2251e-05
4.21976e-05
4.20654e-05
0.00447998
0.00452948
0.0045679
0.00459474
0.00461392
0.00462677
0.00463884
0.00465923
0.00469582
0.0047527
0.00482809
0.00491399
0.00499748
0.00506581
0.00511141
0.0051291
0.00511315
0.00506119
0.00497818
0.00486897
0.00474308
0.00461967
0.00452103
0.00446568
0.00446596
0.00452659
0.00464362
0.00480486
0.00498943
0.00516915
0.00531271
0.00540148
0.00543367
0.00540884
0.00532324
0.00517592
0.00497131
0.00470784
0.00439325
0.00405049
0.00370662
0.00338689
0.0031128
0.00290206
0.00276775
0.00271678
0.00274928
0.00285881
0.00303368
0.00325886
0.00351806
0.00379418
0.00407137
0.00433221
0.00455495
0.00471188
0.00478695
0.00479043
0.00474592
0.00466706
0.00455663
0.00441539
0.00424322
0.00402704
0.00376196
0.00346065
0.0031411
0.00281736
0.00249902
0.0021931
0.00190526
0.0016405
0.00140312
0.00119652
0.00102326
0.000885051
0.000782751
0.000716527
0.000686054
0.000690659
0.000729375
0.000801005
0.000903691
0.00103531
0.00119305
0.00137358
0.00157323
0.00178831
0.00201511
0.00224995
0.00248931
0.00272994
0.00296888
0.00320363
0.00343138
0.00364796
0.00384448
0.00400454
0.00410805
0.00414218
0.00411149
0.00403717
0.00394461
0.00384977
0.00375715
0.00366748
0.00357972
0.00348341
0.00335475
0.00317962
0.002963
0.00272077
0.00246909
0.00221944
0.00197768
0.00174759
0.00153214
0.00133224
0.00114858
0.00098165
0.000831668
0.000698531
0.000581788
0.000480688
0.000394304
0.000321538
0.000261085
0.000211553
0.000171562
0.000139764
0.000114851
9.55974e-05
8.0904e-05
6.98476e-05
6.16567e-05
5.56956e-05
5.14538e-05
4.85372e-05
4.66605e-05
4.56387e-05
4.53848e-05
4.59126e-05
4.73482e-05
4.9951e-05
5.41458e-05
6.05697e-05
7.0131e-05
8.40789e-05
0.00010408
0.000132287
0.000171388
0.000224599
0.000295573
0.00038819
0.000506217
0.000652857
0.000830257
0.00103911
0.00127849
0.00154602
0.00183835
0.00215191
0.00248313
0.00282905
0.00318623
0.00355303
0.00392759
0.00430585
0.00467723
0.00501901
0.00529527
0.00546888
0.00552577
0.0054938
0.00542879
0.00537306
0.00534419
0.00534737
0.00536936
0.00535298
0.00521921
0.00493357
0.00451867
0.00402318
0.00349163
0.00295416
0.00243053
0.00193694
0.00148866
0.0010992
0.000778578
0.000530416
0.000350162
0.000227143
0.000148167
0.000100501
7.33647e-05
5.87027e-05
5.11501e-05
4.7421e-05
4.56112e-05
4.4705e-05
4.42032e-05
4.38736e-05
4.36139e-05
4.33836e-05
4.31698e-05
4.29702e-05
4.27879e-05
4.26274e-05
4.2493e-05
4.23882e-05
4.23148e-05
4.22706e-05
4.22497e-05
4.22475e-05
4.22425e-05
4.22035e-05
4.21023e-05
4.19231e-05
0.00447869
0.00452765
0.00456561
0.0045923
0.00461144
0.00462456
0.00463763
0.0046598
0.00469863
0.00475755
0.00483441
0.00492036
0.00500246
0.00506843
0.00511132
0.00512583
0.00510645
0.0050515
0.00496642
0.00485598
0.00473075
0.00461052
0.00451734
0.00446899
0.00447697
0.00454507
0.00466803
0.00483302
0.00501785
0.00519364
0.00532982
0.00541045
0.00543494
0.00540192
0.00530771
0.00515227
0.00493966
0.0046683
0.00434857
0.00400475
0.00366396
0.00335101
0.00308687
0.00288868
0.00276861
0.0027325
0.00277928
0.00290146
0.00308656
0.00331912
0.00358259
0.00385997
0.00413508
0.00438991
0.00460082
0.00474062
0.00479858
0.00478993
0.00473765
0.0046516
0.00453423
0.00438585
0.00420436
0.00397595
0.00370025
0.00339253
0.00307025
0.00274633
0.00242963
0.00212683
0.00184349
0.00158452
0.00135406
0.00115538
0.000990885
0.000862083
0.000769676
0.000713693
0.000693695
0.000708901
0.000758216
0.000840166
0.000953038
0.00109413
0.00126047
0.00144853
0.00165454
0.00187474
0.00210536
0.00234273
0.00258339
0.00282413
0.00306221
0.00329497
0.00351935
0.0037298
0.00391459
0.00405488
0.00413189
0.00413886
0.0040878
0.00400354
0.00390896
0.00381466
0.00372296
0.00363376
0.00354453
0.00343726
0.00328977
0.00309583
0.00286638
0.00261846
0.00236667
0.00211981
0.00188201
0.00165773
0.00144853
0.0012552
0.00107835
0.000918376
0.000775336
0.000649003
0.000538783
0.000443845
0.000363201
0.000295651
0.000239835
0.000194362
0.000157867
0.000129018
0.000106539
8.92488e-05
7.61227e-05
6.63061e-05
5.90865e-05
5.38836e-05
5.02382e-05
4.78079e-05
4.6357e-05
4.57524e-05
4.5964e-05
4.7073e-05
4.92885e-05
5.29756e-05
5.86957e-05
6.72604e-05
7.97959e-05
9.78149e-05
0.000123287
0.000158691
0.000207026
0.00027175
0.000356613
0.000465366
0.000601356
0.000767053
0.000963622
0.00119066
0.00144624
0.00172727
0.00203049
0.00235243
0.0026898
0.0030398
0.00339997
0.00376822
0.00414211
0.00451448
0.00486828
0.00517283
0.00538965
0.00549247
0.00549111
0.00543312
0.00537054
0.00533007
0.00531999
0.00533678
0.00534852
0.0052767
0.0050623
0.00470477
0.00424502
0.00373115
0.00319941
0.00267298
0.00216862
0.00170163
0.00128601
0.000933436
0.00065099
0.000438296
0.000287693
0.000187276
0.000124237
8.69528e-05
6.60778e-05
5.4958e-05
4.92849e-05
4.64938e-05
4.51181e-05
4.44022e-05
4.39787e-05
4.36796e-05
4.3433e-05
4.32119e-05
4.30087e-05
4.28238e-05
4.26607e-05
4.2523e-05
4.24139e-05
4.23344e-05
4.22832e-05
4.22562e-05
4.2244e-05
4.22369e-05
4.22071e-05
4.21292e-05
4.19834e-05
4.17629e-05
0.00447733
0.00452581
0.0045633
0.00458987
0.004609
0.00462243
0.00463657
0.00466058
0.00470166
0.00476253
0.00484073
0.00492659
0.00500716
0.00507076
0.00511092
0.00512222
0.00509945
0.00504165
0.00495461
0.00484311
0.00471879
0.00460203
0.00451448
0.00447321
0.00448885
0.00456426
0.00469288
0.00486119
0.00504577
0.00521707
0.00534565
0.00541825
0.00543508
0.00539374
0.00529102
0.00512755
0.00490689
0.00462795
0.00430368
0.00395947
0.0036224
0.00331676
0.00306304
0.00287774
0.00277209
0.00275079
0.00281161
0.00294603
0.00314085
0.00338022
0.00364734
0.0039254
0.00419769
0.00444546
0.00464321
0.00476538
0.00480714
0.00478758
0.00472789
0.0046348
0.00451006
0.0043546
0.00416283
0.00392219
0.0036368
0.00332363
0.00299931
0.00267566
0.00236097
0.00206164
0.00178314
0.00153028
0.00130706
0.00111659
0.000961102
0.000841928
0.000759599
0.000714012
0.000704614
0.000730501
0.000790438
0.000882778
0.00100559
0.00115593
0.00133056
0.00152576
0.0017377
0.00196255
0.00219653
0.00243597
0.00267751
0.00291795
0.00315473
0.00338504
0.00360521
0.00380775
0.00397785
0.00409535
0.00414476
0.00412655
0.00405921
0.00396869
0.0038736
0.00377998
0.00368918
0.0036002
0.00350616
0.00338413
0.0032169
0.00300624
0.002767
0.00251585
0.00226518
0.00202153
0.00178902
0.00157073
0.00136789
0.00118122
0.00101122
0.000858172
0.000722009
0.000602347
0.000498486
0.000409527
0.000334396
0.000271806
0.000220369
0.000178705
0.000145468
0.000119345
9.90928e-05
8.35906e-05
7.18899e-05
6.31976e-05
5.68596e-05
5.23491e-05
4.92602e-05
4.73022e-05
4.62921e-05
4.61529e-05
4.69193e-05
4.87505e-05
5.19538e-05
5.70192e-05
6.46678e-05
7.59112e-05
9.21189e-05
0.000115087
0.000147096
0.000190933
0.000249856
0.000327464
0.000427454
0.000553263
0.000707619
0.000892102
0.00110681
0.00135026
0.00162002
0.00191277
0.00222539
0.00255407
0.00289617
0.00324918
0.00361101
0.00397962
0.00435028
0.0047109
0.00503672
0.00529135
0.00544091
0.0054782
0.0054369
0.00537179
0.00531953
0.0052964
0.00530298
0.00532575
0.00530227
0.00515826
0.00486618
0.00445194
0.00396327
0.00344214
0.00291679
0.00240566
0.001924
0.00148613
0.00110465
0.000789068
0.000542945
0.000362295
0.00023735
0.000155857
0.000105763
7.66736e-05
6.06193e-05
5.2168e-05
4.78919e-05
4.57803e-05
4.47158e-05
4.4135e-05
4.37673e-05
4.34918e-05
4.32582e-05
4.30489e-05
4.286e-05
4.26933e-05
4.25518e-05
4.24377e-05
4.23525e-05
4.2295e-05
4.22613e-05
4.22429e-05
4.22333e-05
4.22095e-05
4.21493e-05
4.203e-05
4.1844e-05
4.15886e-05
0.00447592
0.00452395
0.00456098
0.00458747
0.00460659
0.0046204
0.00463569
0.00466156
0.00470488
0.00476766
0.00484704
0.00493266
0.0050116
0.00507278
0.0051102
0.00511829
0.00509216
0.00503165
0.00494275
0.00483037
0.00470726
0.0045942
0.00451246
0.00447835
0.00450158
0.00458412
0.00471814
0.0048893
0.0050731
0.00523939
0.00536022
0.00542491
0.00543404
0.0053844
0.0052731
0.00510179
0.00487304
0.00458685
0.00425868
0.00391475
0.00358202
0.00328423
0.00304138
0.00286927
0.00277816
0.00277161
0.00284619
0.00299241
0.00319643
0.00344206
0.00371221
0.00399029
0.00425902
0.00449857
0.00468191
0.00478628
0.00481297
0.00478361
0.00471664
0.0046166
0.00448433
0.00432141
0.00411854
0.00386594
0.00357186
0.00325414
0.00292839
0.00260545
0.00229313
0.00199762
0.0017243
0.00147788
0.0012622
0.00108022
0.000933986
0.00082465
0.000752579
0.000717536
0.000718847
0.000755479
0.000826035
0.000928702
0.00106114
0.00122061
0.00140316
0.00160512
0.00182254
0.00205158
0.00228844
0.0025295
0.00277144
0.00301124
0.00324629
0.00347359
0.00368845
0.00388081
0.00403304
0.00412525
0.00414713
0.00410677
0.00402742
0.00393359
0.00383864
0.00374593
0.00365539
0.00356591
0.00346297
0.00332325
0.00313681
0.00291218
0.00266615
0.00241412
0.00216574
0.0019257
0.00169877
0.0014866
0.00129024
0.00111029
0.00094716
0.000800996
0.000671613
0.000558479
0.000460803
0.000377626
0.000307768
0.000249879
0.00020257
0.000164476
0.000134266
0.000110652
9.2433e-05
7.85601e-05
6.81547e-05
6.04841e-05
5.49502e-05
5.10797e-05
4.85215e-05
4.70384e-05
4.65037e-05
4.69032e-05
4.83458e-05
5.10819e-05
5.55338e-05
6.23378e-05
7.23986e-05
8.69522e-05
0.000107633
0.000136531
0.000176229
0.000229782
0.000300624
0.000392368
0.000508487
0.000651908
0.000824559
0.00102699
0.00125845
0.00151675
0.00179909
0.00210164
0.00242153
0.0027555
0.00310113
0.00345628
0.0038191
0.00418656
0.00454951
0.00489005
0.00517574
0.00536985
0.00545143
0.0054367
0.0053754
0.00531533
0.00527856
0.00527282
0.00529246
0.00530078
0.00522009
0.00499825
0.00463925
0.0041845
0.00368003
0.00315985
0.00264576
0.0021535
0.00169741
0.00129058
0.00094407
0.000664646
0.000452238
0.0003
0.000196985
0.000131195
9.1532e-05
6.88667e-05
5.65116e-05
5.00622e-05
4.68205e-05
4.52017e-05
4.43607e-05
4.38763e-05
4.35496e-05
4.32937e-05
4.30733e-05
4.28972e-05
4.27257e-05
4.25794e-05
4.24605e-05
4.23695e-05
4.2306e-05
4.22664e-05
4.22438e-05
4.22305e-05
4.22109e-05
4.21635e-05
4.20678e-05
4.1912e-05
4.16921e-05
4.14078e-05
0.00447445
0.00452209
0.00455863
0.00458508
0.00460421
0.00461846
0.00463497
0.00466274
0.0047083
0.00477292
0.00485332
0.00493856
0.00501575
0.0050745
0.00510917
0.00511403
0.00508463
0.00502152
0.00493085
0.00481781
0.00469616
0.00458707
0.00451128
0.00448439
0.00451515
0.00460458
0.00474375
0.00491728
0.00509977
0.00526056
0.00537355
0.00543044
0.0054318
0.00537389
0.005254
0.00507498
0.00483815
0.00454511
0.00421369
0.00387071
0.0035429
0.00325348
0.00302193
0.0028633
0.00278683
0.0027949
0.00288295
0.00304053
0.00325318
0.00350451
0.00377711
0.00405451
0.0043189
0.00454896
0.00471679
0.00480353
0.00481632
0.00477813
0.0047039
0.00459672
0.00445714
0.00428606
0.00407149
0.00380743
0.00350567
0.00318423
0.0028576
0.00253578
0.00222619
0.00193484
0.00166706
0.0014274
0.00121957
0.00104635
0.000909608
0.000810315
0.000748673
0.00072431
0.000736425
0.000783843
0.000865
0.000977887
0.00111991
0.00128805
0.00147815
0.00168643
0.0019089
0.00214166
0.00238094
0.00262318
0.00286508
0.00310385
0.0033367
0.00356029
0.00376835
0.00394783
0.00407905
0.00414433
0.00413998
0.00408121
0.00399374
0.00389862
0.00380407
0.00371228
0.00362193
0.00352936
0.0034135
0.00325451
0.00305056
0.00281503
0.00256511
0.00231359
0.00206744
0.00183243
0.0016113
0.00140539
0.00121557
0.00104237
0.000886116
0.000746789
0.000624069
0.000517311
0.000425646
0.000348033
0.000283196
0.000229753
0.000186327
0.000151569
0.000124162
0.00010285
8.64873e-05
7.41e-05
6.48734e-05
5.81341e-05
5.33391e-05
5.00706e-05
4.80333e-05
4.70465e-05
4.70451e-05
4.80861e-05
5.03638e-05
5.42354e-05
6.02571e-05
6.92338e-05
8.22771e-05
0.000100869
0.000126922
0.00016282
0.000211416
0.00027597
0.000359981
0.000466917
0.000599841
0.000760958
0.00095142
0.00117087
0.00141778
0.00168907
0.00198172
0.00229228
0.00261798
0.00295602
0.00330424
0.00366079
0.00402336
0.00438652
0.0047366
0.00504713
0.00527972
0.00540766
0.00542855
0.00538013
0.0053155
0.0052669
0.00524768
0.00525673
0.00527913
0.00524927
0.00509745
0.00480208
0.00439085
0.00391024
0.00340003
0.00288673
0.00238775
0.00191742
0.00148915
0.00111475
0.0008033
0.000558385
0.000376638
0.000249214
0.000164761
0.00011189
8.05716e-05
6.29191e-05
5.33994e-05
4.8476e-05
4.60006e-05
4.47431e-05
4.40655e-05
4.36527e-05
4.33591e-05
4.31226e-05
4.29202e-05
4.27416e-05
4.25902e-05
4.24658e-05
4.23858e-05
4.23162e-05
4.22706e-05
4.22445e-05
4.22276e-05
4.22112e-05
4.21739e-05
4.20975e-05
4.19664e-05
4.17766e-05
4.15293e-05
4.12191e-05
0.00447291
0.00452024
0.00455628
0.00458271
0.00460188
0.00461662
0.00463443
0.00466412
0.00471188
0.0047783
0.00485956
0.00494427
0.00501963
0.00507594
0.00510783
0.00510944
0.00507681
0.00501128
0.00491893
0.00480544
0.00468554
0.00458064
0.00451095
0.00449131
0.00452955
0.00462557
0.00476966
0.00494509
0.00512571
0.00528056
0.00538566
0.00543487
0.00542839
0.00536218
0.0052338
0.00504712
0.00480225
0.00450283
0.0041688
0.00382743
0.00350513
0.00322459
0.00300475
0.00285985
0.00279808
0.00282062
0.00292179
0.00309026
0.00331101
0.00356742
0.00384191
0.00411792
0.00437709
0.00459636
0.00474778
0.00481736
0.00481751
0.00477119
0.00468967
0.00457526
0.00442845
0.00424833
0.00402171
0.0037469
0.00343845
0.00311404
0.00278703
0.00246674
0.00216023
0.00187341
0.00161149
0.00137893
0.00117924
0.00101505
0.00088804
0.000798986
0.000747934
0.000734375
0.000757372
0.000815597
0.000907308
0.00103027
0.00118166
0.00135812
0.00155538
0.00176955
0.00199659
0.00223261
0.00247385
0.00271683
0.0029583
0.0031956
0.00342576
0.00364473
0.00384403
0.00400759
0.00411503
0.00415277
0.00412464
0.00405161
0.00395931
0.00386399
0.00377015
0.00367859
0.00358828
0.00348884
0.00335672
0.00317836
0.00295933
0.00271578
0.00246377
0.00221349
0.00197145
0.0017418
0.00152664
0.00132709
0.00114389
0.000977484
0.000828062
0.000695491
0.000579302
0.000478751
0.000392912
0.000320628
0.00026056
0.000211317
0.000171536
0.000139885
0.000115067
9.58609e-05
8.11925e-05
7.01596e-05
6.20083e-05
5.61229e-05
5.20154e-05
4.93264e-05
4.78178e-05
4.73704e-05
4.79873e-05
4.98069e-05
5.31225e-05
5.84149e-05
6.63951e-05
7.80587e-05
9.47458e-05
0.0001182
0.000150615
0.000194647
0.000253372
0.000330156
0.000428424
0.00055131
0.00070137
0.000880071
0.0010877
0.0013228
0.00158316
0.0018655
0.00216672
0.00248375
0.00281403
0.00315512
0.00350513
0.00386218
0.00422261
0.00457694
0.00490458
0.00517264
0.00534654
0.00541016
0.00538519
0.00532194
0.00526408
0.00523065
0.00522453