/*--------------------------------*- C++ -*----------------------------------*\
| =========                 |                                                 |
| \\      /  F ield         | OpenFOAM: The Open Source CFD Toolbox           |
|  \\    /   O peration     | Version:  v2012                                 |
|   \\  /    A nd           | Website:  www.openfoam.com                      |
|    \\/     M anipulation  |                                                 |
\*---------------------------------------------------------------------------*/
FoamFile
{
    version     2.0;
    format      ascii;
    class       volScalarField;
    location    "0";
    object      im;
}
// * * * * * * * * * * * * * * * * * * * * * * * * * * * * * * * * * * * * * //

dimensions      [0 0 0 0 0 0 0];


internalField   nonuniform List<scalar> 
97664
(
0.999905
1
0.999988
1
1
1
0.999998
0.999977
0.999947
0.999936
0.999941
0.999946
0.999956
0.999976
0.99999
1
0.999997
0.999983
1
1
1
1
0.999993
0.999974
0.99995
0.999925
0.999919
0.999944
0.99997
0.999964
0.999973
0.999981
0.999993
1
0.999981
0.999959
1
1
1
1
1
0.999998
0.999977
0.999947
0.999925
0.99992
0.999934
0.999957
0.999973
0.999968
0.999945
0.999933
0.999968
1
0.999991
0.99998
0.999982
0.999984
0.999991
1
0.99999
0.999974
0.999979
1
1
1
1
1
0.999995
0.999975
0.999933
0.999788
0.999338
0.998012
0.99446
0.985751
0.965508
0.928607
0.883465
0.848012
0.837401
0.854863
0.893112
0.938668
0.97367
0.989986
0.99316
0.995202
0.998932
1
0.99869
0.996606
0.995085
0.99507
0.997059
0.999582
1
0.999999
0.999999
0.999995
0.999992
0.999989
0.999987
0.999986
0.999992
1
1
0.999954
0.999984
1
1
1
1
1
1
1
0.999882
0.999302
0.997802
0.994654
0.989238
0.980447
0.965593
0.939886
0.903831
0.868641
0.845988
0.829755
0.816773
0.816423
0.832942
0.848296
0.84272
0.818016
0.784412
0.784151
0.784198
0.784295
0.784497
0.784139
0.784131
0.784109
0.784158
0.78398
0.784638
0.783841
0.784072
0.78383
0.784845
0.784584
0.784097
0.784066
0.784188
0.784902
0.785511
0.786196
0.787325
0.789003
0.791051
0.795304
0.805151
0.823563
0.854936
0.898655
0.937601
0.958427
0.970327
0.985736
0.998567
1
0.999987
1
1
0.999999
0.999998
0.999997
0.999997
0.999997
0.99998
0.999973
0.99998
0.999995
0.999998
1
1
1
1
0.999896
0.998876
0.99163
0.960137
0.890621
0.839621
0.874007
0.887676
0.819957
0.785365
0.831589
0.854431
0.835237
0.847762
0.84876
0.811104
0.794566
0.794453
0.785799
0.784745
0.784247
0.78451
0.783897
0.784099
0.783868
0.785379
0.783931
0.785893
0.794385
0.804207
0.81194
0.812895
0.794984
0.999907
1
0.999989
1
1
1
0.999996
0.999973
0.999944
0.999941
0.99994
0.999946
0.999957
0.999977
0.999991
1
0.999988
0.999988
1
1
1
1
0.99999
0.999971
0.999945
0.999921
0.999925
0.999948
0.999967
0.999961
0.999972
0.999982
0.999995
1
0.999968
0.999964
1
1
1
1
1
0.999995
0.999972
0.999942
0.999923
0.999921
0.999938
0.999961
0.999973
0.999963
0.999938
0.999941
0.999979
1
0.99998
0.999977
0.999983
0.999989
0.999998
1
1
0.999938
1
1
1
1
1
0.999999
0.99999
0.999969
0.99991
0.999717
0.999136
0.997458
0.992951
0.98205
0.957642
0.917482
0.873493
0.843802
0.841485
0.867084
0.909736
0.952795
0.982906
0.993643
0.99428
0.996428
0.999699
0.999855
0.998139
0.996122
0.995008
0.995723
0.998142
1
1
0.999991
0.999991
0.99999
0.999991
0.999993
0.999996
1
1
1
0.999927
0.999967
1
1
1
1
1
1
1
0.999936
0.999698
0.998994
0.996927
0.992418
0.984987
0.973481
0.954791
0.925658
0.890374
0.860275
0.839859
0.824124
0.815124
0.82307
0.843317
0.853062
0.836825
0.803964
0.784944
0.784588
0.784709
0.784594
0.784168
0.784102
0.784151
0.784224
0.784365
0.784222
0.784878
0.784065
0.784213
0.78376
0.784013
0.784665
0.784297
0.784143
0.784727
0.785465
0.786057
0.786988
0.788308
0.789954
0.792994
0.800484
0.815013
0.839971
0.879481
0.92366
0.953802
0.967835
0.980063
0.994247
1
1
0.999994
0.999999
0.999998
0.999998
0.999998
0.999999
1
1
1
1
0.999989
1
1
1
1
1
1
0.999807
0.997082
0.979737
0.926731
0.858198
0.86243
0.90095
0.862066
0.789653
0.805981
0.857542
0.848223
0.838168
0.852481
0.824269
0.784942
0.791978
0.784764
0.784058
0.784669
0.784437
0.78534
0.784652
0.784806
0.783872
0.784023
0.785265
0.785804
0.795405
0.805386
0.808121
0.800137
0.785445
0.999908
1
0.999991
1
1
1
0.999994
0.999969
0.999939
0.999941
0.999939
0.999946
0.999959
0.999978
0.999993
1
0.999988
0.999992
1
1
1
0.999999
0.999988
0.999968
0.999942
0.999918
0.999929
0.999948
0.999963
0.99996
0.999972
0.999984
0.999997
0.999999
0.999965
0.999977
1
1
1
1
0.999999
0.999991
0.999966
0.999938
0.999921
0.999923
0.999942
0.999964
0.999971
0.999957
0.999936
0.999946
0.999989
0.999996
0.999972
0.999976
0.999984
0.999993
1
1
0.999973
0.999966
1
1
1
1
1
0.999996
0.999985
0.999959
0.999881
0.999629
0.998867
0.996616
0.990988
0.977273
0.948673
0.906419
0.865061
0.842561
0.848785
0.879709
0.923595
0.96614
0.990426
0.995456
0.995113
0.9975
1
0.999485
0.997581
0.995766
0.995191
0.996497
0.998919
1
0.999989
0.999988
0.999988
0.999989
0.999992
0.999994
0.999999
1
1
0.999963
0.999995
0.999985
1
1
1
1
1
0.999994
0.999965
0.99991
0.999647
0.998402
0.995395
0.990066
0.981811
0.968538
0.946114
0.913267
0.878007
0.851484
0.832854
0.817206
0.814075
0.829823
0.847998
0.84466
0.820477
0.785416
0.784073
0.784186
0.78514
0.785158
0.784187
0.784118
0.784093
0.784107
0.784007
0.78491
0.783803
0.784508
0.78463
0.784364
0.783902
0.78414
0.784127
0.78453
0.785288
0.785987
0.786697
0.787703
0.789025
0.791205
0.796768
0.808523
0.828176
0.861356
0.905712
0.944816
0.965504
0.976572
0.989333
0.999219
1
0.999988
0.999998
0.999998
0.999998
0.999998
0.999998
1
1
0.999988
0.999931
0.999996
1
1
1
1
1
0.999991
0.999849
0.998531
0.989625
0.95443
0.887133
0.855025
0.895596
0.894144
0.819342
0.783803
0.837178
0.858818
0.83221
0.833879
0.831785
0.790808
0.784712
0.792282
0.784462
0.784589
0.78377
0.783724
0.783913
0.785551
0.784922
0.785151
0.784634
0.78469
0.785574
0.79655
0.804371
0.802015
0.789319
0.784439
0.999912
1
0.999994
1
1
1
0.999991
0.999966
0.999938
0.99994
0.999939
0.999946
0.99996
0.99998
0.999993
0.999998
0.999988
0.999996
1
1
1
0.999997
0.999985
0.999963
0.999937
0.999914
0.999929
0.999952
0.99996
0.99996
0.999973
0.999985
0.999999
0.999995
0.999957
0.999982
1
1
1
1
0.999997
0.999988
0.99996
0.999933
0.99992
0.999926
0.999947
0.999967
0.999971
0.999953
0.999933
0.999954
0.999999
0.999987
0.999969
0.999977
0.999986
0.999995
1
1
0.999947
0.999986
1
1
1
1
0.999999
0.999994
0.99998
0.999949
0.999844
0.999505
0.998479
0.995648
0.988581
0.971703
0.939076
0.895818
0.858415
0.843245
0.856573
0.893397
0.940616
0.978064
0.995009
0.996414
0.99574
0.998395
1
0.999056
0.99707
0.995534
0.995502
0.99734
0.999693
1
0.999982
0.999988
0.999988
0.99999
0.999993
0.999997
1
1
1
0.999949
0.999969
1
1
1
1
1
1
1
1
0.999819
0.999011
0.997142
0.993398
0.986943
0.976637
0.95967
0.9326
0.898131
0.866854
0.845276
0.826981
0.81367
0.819252
0.840102
0.8528
0.840292
0.806671
0.783078
0.784663
0.785214
0.785559
0.784442
0.784144
0.784175
0.784162
0.784107
0.784354
0.784264
0.784552
0.784023
0.783911
0.784723
0.784051
0.784103
0.784394
0.785062
0.785925
0.786627
0.787317
0.788244
0.789769
0.793926
0.803376
0.818863
0.84568
0.886318
0.930452
0.960716
0.974312
0.984865
0.996025
1
1
0.999996
0.999998
0.999998
0.999998
0.999999
1
1
1
1
1
0.999998
1
1
1
1
1
0.999991
0.999658
0.995992
0.975766
0.922139
0.865451
0.884557
0.915492
0.868294
0.79414
0.810779
0.863286
0.849596
0.827296
0.837951
0.81724
0.783087
0.787528
0.786963
0.784459
0.784366
0.783921
0.784364
0.784403
0.784121
0.784733
0.783553
0.783849
0.784637
0.787261
0.797206
0.804575
0.793044
0.784527
0.797279
0.999915
1
0.999994
1
1
1
0.999989
0.999963
0.999936
0.999939
0.99994
0.999946
0.999962
0.999981
0.999995
0.999997
0.999985
1
1
1
1
0.999996
0.999982
0.99996
0.999934
0.999915
0.999931
0.999955
0.999956
0.99996
0.999974
0.999987
1
0.999995
0.99996
0.999997
1
1
1
1
0.999995
0.999984
0.999955
0.999929
0.999919
0.999928
0.99995
0.999967
0.999966
0.999946
0.999933
0.999963
1
0.999978
0.999969
0.999979
0.999989
1
1
0.999998
0.999983
0.999992
1
1
1
1
0.999998
0.999991
0.999975
0.999932
0.999786
0.999335
0.998022
0.994404
0.985495
0.964948
0.928849
0.885952
0.853415
0.846214
0.868176
0.909901
0.954621
0.987131
0.998077
0.996613
0.996344
0.999132
1
0.998563
0.996587
0.995446
0.996074
0.998315
1
1
0.999982
0.999987
0.999988
0.999991
0.999995
1
1
1
0.999996
0.999959
0.999987
1
1
1
1
1
0.999993
0.999942
0.99981
0.999603
0.998863
0.996439
0.991464
0.983421
0.97097
0.950674
0.92062
0.886648
0.859057
0.837109
0.817614
0.812393
0.827427
0.847398
0.847546
0.824354
0.788034
0.784224
0.784025
0.786197
0.786139
0.784082
0.784112
0.784104
0.784075
0.784129
0.783991
0.784686
0.784048
0.783881
0.78411
0.784029
0.784125
0.784277
0.784947
0.7858
0.786582
0.787046
0.787565
0.788547
0.791917
0.799198
0.811672
0.832806
0.867684
0.912374
0.951354
0.972022
0.982008
0.992322
0.999599
1
0.999991
0.999998
0.999998
0.999998
0.999998
0.999998
0.999999
1
1
0.999957
1
1
1
1
1
1
0.999991
0.999824
0.998195
0.987964
0.951592
0.890157
0.873385
0.915243
0.904498
0.823459
0.78492
0.836437
0.861985
0.826113
0.819197
0.82472
0.789002
0.783527
0.785562
0.784123
0.784059
0.784232
0.785111
0.783951
0.78408
0.785836
0.78435
0.784112
0.784451
0.784382
0.787485
0.800125
0.798369
0.78612
0.79003
0.808027
0.999918
1
0.999995
1
1
0.999999
0.999986
0.999959
0.999936
0.999938
0.999941
0.999946
0.999964
0.999983
0.999996
0.999996
0.999988
1
1
1
1
0.999994
0.999979
0.999956
0.99993
0.999913
0.999932
0.999957
0.999954
0.999961
0.999975
0.99999
1
0.999984
0.99996
1
1
1
1
1
0.999993
0.99998
0.999949
0.999926
0.999919
0.999932
0.999954
0.999969
0.999965
0.999944
0.999939
0.999972
1
0.999971
0.999971
0.999981
0.999991
1
1
0.999996
0.999943
1
1
1
1
1
0.999996
0.999988
0.999969
0.999912
0.999723
0.999135
0.997391
0.992868
0.981696
0.95736
0.918589
0.877128
0.85091
0.85231
0.880036
0.923689
0.968297
0.994503
0.99947
0.996372
0.997087
0.999732
0.999789
0.998022
0.996219
0.99559
0.996753
0.999032
1
0.999985
0.999984
0.999987
0.999989
0.999992
0.999996
1
1
1
1
0.99997
1
1
1
1
1
1
1
1
0.999981
0.999412
0.997575
0.993968
0.988173
0.979089
0.964173
0.939744
0.907081
0.875325
0.85137
0.830103
0.813935
0.816531
0.836399
0.851311
0.842837
0.808572
0.783527
0.784908
0.786233
0.786792
0.784431
0.784111
0.784109
0.784122
0.784253
0.784284
0.784109
0.783963
0.783843
0.784408
0.784374
0.784041
0.784149
0.784869
0.785699
0.786458
0.786918
0.787098
0.787675
0.790371
0.796163
0.806123
0.822577
0.851161
0.892667
0.936837
0.967066
0.980192
0.988925
0.997369
1
0.999999
0.999997
0.999998
0.999998
0.999998
0.999999
1
1
1
0.99999
0.999992
1
1
1
1
1
1
0.999955
0.999452
0.995145
0.973673
0.921566
0.875666
0.902792
0.925728
0.870023
0.794545
0.808152
0.866492
0.850326
0.814476
0.824902
0.816532
0.783547
0.784523
0.784069
0.784013
0.785056
0.784702
0.7845
0.784004
0.784368
0.785498
0.784674
0.78418
0.784334
0.785233
0.79343
0.80006
0.792108
0.784501
0.799312
0.819594
0.999922
1
0.999997
1
1
0.999998
0.999983
0.999956
0.999932
0.999941
0.99994
0.999947
0.999966
0.999984
0.999996
0.999997
0.999984
1
1
1
1
0.999992
0.999976
0.999952
0.999926
0.999914
0.999934
0.999958
0.999952
0.999963
0.999977
0.99999
1
0.99999
0.999946
1
1
1
1
1
0.999991
0.999975
0.999943
0.999923
0.99992
0.999935
0.999957
0.999968
0.999958
0.999936
0.999944
0.999983
0.999996
0.999966
0.999973
0.999983
0.999993
1
1
0.999999
0.999972
1
1
1
1
1
0.999994
0.999984
0.999961
0.999882
0.999625
0.998842
0.996604
0.99092
0.977019
0.948819
0.908335
0.869935
0.850578
0.859291
0.893762
0.94144
0.981324
0.999856
0.999148
0.996312
0.997903
1
0.999413
0.99751
0.995976
0.995856
0.997521
0.999742
1
0.99998
0.999986
0.999988
0.99999
0.999994
0.999998
1
1
1
0.99993
0.999979
1
1
1
1
1
1
0.999995
0.999893
0.999575
0.99885
0.996997
0.992922
0.985685
0.973995
0.955293
0.927501
0.894978
0.866627
0.842513
0.819606
0.810479
0.824271
0.845826
0.850295
0.828186
0.789961
0.784117
0.784782
0.787154
0.787199
0.78424
0.784108
0.784184
0.784054
0.78459
0.784727
0.784434
0.784581
0.784433
0.784375
0.784227
0.784088
0.784719
0.785735
0.786425
0.786879
0.787025
0.787327
0.78965
0.794225
0.802067
0.814573
0.837227
0.873406
0.918513
0.957517
0.978009
0.986796
0.994694
0.999798
1
0.999994
0.999998
0.999998
0.999998
0.999998
0.999999
1
1
0.999967
1
0.999987
1
1
1
1
1
1
0.999882
0.998183
0.987186
0.950797
0.895959
0.890791
0.92969
0.911832
0.83206
0.788642
0.838376
0.86517
0.820618
0.806918
0.82155
0.795455
0.784345
0.784263
0.78517
0.784971
0.784866
0.784535
0.784559
0.784748
0.784464
0.783434
0.784566
0.784758
0.78403
0.787155
0.794606
0.792988
0.784884
0.791334
0.808887
0.822936
0.999926
1
0.999998
1
1
0.999997
0.999981
0.999953
0.999933
0.999939
0.99994
0.999948
0.999968
0.999986
0.999998
0.999993
0.999988
1
1
1
1
0.99999
0.999973
0.999948
0.999923
0.999916
0.999936
0.999957
0.999952
0.999965
0.999978
0.999992
1
0.999977
0.999961
1
1
1
1
1
0.999989
0.999969
0.999938
0.999921
0.999921
0.999939
0.99996
0.999968
0.999955
0.999936
0.99995
0.999992
0.999988
0.999965
0.999975
0.999985
0.999995
1
1
0.99995
0.999972
1
1
1
1
0.999999
0.999993
0.99998
0.99995
0.999845
0.999509
0.9985
0.99565
0.98848
0.971485
0.939808
0.898803
0.864201
0.852304
0.869805
0.909515
0.955117
0.989423
1
0.998581
0.996498
0.998636
1
0.998979
0.997027
0.99588
0.996341
0.99839
1
1
0.999981
0.999987
0.999988
0.999991
0.999994
0.999999
1
1
0.999955
1
0.999987
1
1
1
1
1
0.999986
0.999931
0.999812
0.999545
0.998301
0.995048
0.989403
0.980898
0.967617
0.946146
0.916113
0.884575
0.858291
0.83399
0.814704
0.814135
0.832876
0.850509
0.844333
0.810455
0.786534
0.785092
0.786977
0.788323
0.784436
0.784199
0.784137
0.784242
0.784163
0.784047
0.783872
0.783936
0.784464
0.783933
0.784254
0.784137
0.784688
0.785699
0.786499
0.786923
0.787057
0.787366
0.789339
0.793461
0.799606
0.808843
0.826025
0.856178
0.898344
0.942723
0.972975
0.985444
0.992273
0.998344
1
0.999998
0.999997
0.999998
0.999998
0.999998
0.999999
1
1
0.999993
0.999963
0.999996
1
1
1
1
1
0.999993
0.999894
0.999131
0.994166
0.972455
0.923651
0.887011
0.917327
0.934809
0.87713
0.795347
0.80006
0.858882
0.847861
0.802565
0.812363
0.814648
0.785927
0.784137
0.784105
0.784282
0.784002
0.784819
0.783696
0.784017
0.783961
0.784909
0.784523
0.784471
0.784464
0.784561
0.791413
0.793443
0.788069
0.787915
0.796907
0.817081
0.824954
0.999929
1
0.999999
1
1
0.999996
0.999978
0.999949
0.999935
0.999938
0.99994
0.99995
0.99997
0.999986
0.999998
0.999993
0.999981
1
1
1
0.999999
0.999988
0.99997
0.999943
0.999917
0.999916
0.999938
0.999955
0.999952
0.999966
0.99998
0.999994
1
0.999966
0.999967
1
1
1
1
0.999998
0.999986
0.999964
0.999934
0.999919
0.999923
0.999943
0.999963
0.999966
0.99995
0.999936
0.99996
0.999997
0.99998
0.999966
0.999977
0.999987
0.999999
1
1
0.999966
0.999985
1
1
1
1
0.999998
0.99999
0.999976
0.999936
0.999794
0.999346
0.998007
0.994409
0.985403
0.965048
0.930331
0.889774
0.86064
0.857129
0.881079
0.923799
0.969701
0.998211
1
0.998104
0.996901
0.999257
0.999963
0.998464
0.996651
0.995983
0.996935
0.99908
1
0.999984
0.999984
0.999987
0.999989
0.999992
0.999997
1
1
1
0.999958
0.999971
1
1
1
1
1
1
1
1
0.999953
0.9992
0.997315
0.993707
0.987567
0.977378
0.960542
0.934838
0.90344
0.87422
0.848447
0.823084
0.809995
0.820372
0.844249
0.8519
0.83217
0.793208
0.783921
0.784508
0.788519
0.788013
0.784259
0.784119
0.784118
0.784175
0.784079
0.784367
0.784259
0.784288
0.783869
0.784351
0.784252
0.784499
0.785666
0.786602
0.787068
0.787264
0.7876
0.789304
0.79294
0.798209
0.805162
0.817536
0.841369
0.878633
0.923913
0.963159
0.983378
0.990863
0.996508
0.999912
1
0.999995
0.999998
0.999998
0.999998
0.999998
1
1
1
1
1
0.999991
1
1
1
1
1
1
0.999972
0.998407
0.987438
0.95235
0.90361
0.905949
0.942462
0.919462
0.836526
0.786069
0.833323
0.868837
0.823228
0.797635
0.817919
0.801903
0.785966
0.784219
0.784383
0.784361
0.784139
0.784439
0.784018
0.784463
0.785122
0.783925
0.784062
0.784864
0.784349
0.787241
0.790532
0.786716
0.784332
0.78835
0.805787
0.824314
0.813999
0.999933
1
1
1
1
0.999994
0.999975
0.999946
0.999933
0.999938
0.99994
0.999952
0.999971
0.999987
0.999998
0.999997
0.999983
1
1
1
0.999998
0.999986
0.999967
0.999941
0.999915
0.999925
0.99994
0.999954
0.999953
0.999968
0.999982
0.999996
0.999997
0.999963
0.999978
1
1
1
1
0.999996
0.999983
0.999958
0.999929
0.999918
0.999925
0.999946
0.999963
0.999962
0.999944
0.999933
0.999967
1
0.999971
0.999968
0.999979
0.99999
1
1
0.999986
0.999958
1
1
1
1
1
0.999997
0.999988
0.99997
0.999915
0.999724
0.999133
0.99742
0.992905
0.981665
0.957789
0.920866
0.882332
0.859285
0.863198
0.894223
0.940991
0.982585
1
0.999669
0.997813
0.997424
0.99971
0.999725
0.997946
0.996409
0.99621
0.997633
0.999724
1
0.999979
0.999985
0.999987
0.99999
0.999994
0.999999
1
1
0.999994
0.999958
0.999989
1
1
1
1
1
0.999992
0.999928
0.999724
0.999296
0.998402
0.996058
0.991159
0.983023
0.970463
0.951079
0.923802
0.89316
0.865779
0.839547
0.81594
0.811802
0.829693
0.848536
0.846329
0.811988
0.783878
0.785043
0.787833
0.78974
0.784674
0.784429
0.784118
0.784116
0.784255
0.78405
0.783904
0.783875
0.784382
0.78399
0.784376
0.784313
0.785478
0.786785
0.787558
0.787725
0.788111
0.789477
0.792421
0.796907
0.802891
0.81175
0.829581
0.860761
0.903489
0.947908
0.978288
0.989922
0.994943
0.998988
1
0.999994
0.999998
0.999998
0.999998
0.999998
0.999999
1
1
0.999988
0.999945
0.999991
1
1
1
1
1
0.999989
0.999849
0.998899
0.993542
0.972369
0.927543
0.898392
0.928951
0.940976
0.882956
0.797686
0.795375
0.854334
0.848697
0.79606
0.797684
0.813192
0.784729
0.785262
0.784894
0.784773
0.785002
0.783913
0.783951
0.785372
0.784047
0.783595
0.783996
0.784026
0.784067
0.784532
0.788659
0.787188
0.784267
0.786893
0.797262
0.817912
0.824228
0.804472
0.999935
1
1
1
1
0.999993
0.999972
0.999944
0.999935
0.999937
0.99994
0.999953
0.999973
0.999989
0.999999
0.999989
0.999987
1
1
1
0.999997
0.999984
0.999963
0.999936
0.999911
0.999922
0.999942
0.999952
0.999955
0.99997
0.999984
0.999997
0.999992
0.999954
0.999983
1
1
1
1
0.999994
0.999979
0.999953
0.999925
0.999918
0.999929
0.999951
0.999966
0.99996
0.99994
0.999943
0.999976
0.999998
0.999966
0.999971
0.999981
0.999991
1
1
1
0.999943
1
1
1
1
1
0.999995
0.999985
0.999963
0.999887
0.999635
0.998869
0.996653
0.990938
0.977092
0.949876
0.911646
0.875938
0.859818
0.872374
0.909259
0.955245
0.990387
1
0.999166
0.997733
0.997982
0.999975
0.999349
0.997462
0.996315
0.996617
0.99842
1
1
0.99998
0.999986
0.999988
0.999991
0.999995
1
1
1
0.999997
0.999966
1
1
1
1
1
1
0.999999
1
1
0.999771
0.998155
0.99454
0.988712
0.979866
0.965548
0.942609
0.912418
0.882621
0.855428
0.827279
0.810495
0.817872
0.840264
0.852772
0.835448
0.797072
0.784058
0.785012
0.789676
0.788926
0.783931
0.784133
0.784129
0.784116
0.784268
0.783977
0.784246
0.784371
0.784307
0.78434
0.784209
0.785194
0.7866
0.787851
0.788456
0.788859
0.789855
0.792084
0.795787
0.801027
0.808041
0.820855
0.845585
0.883467
0.928822
0.968057
0.988035
0.994105
0.997833
0.999957
1
0.999996
0.999997
0.999997
0.999998
0.999999
1
1
1
1
1
0.999998
1
1
1
1
1
1
0.999998
0.998568
0.988029
0.954806
0.911088
0.917084
0.951255
0.927714
0.84288
0.78559
0.82492
0.865785
0.824612
0.787047
0.81312
0.808085
0.783932
0.783647
0.783962
0.784342
0.784446
0.784102
0.783534
0.785967
0.783761
0.783574
0.785355
0.784255
0.78404
0.786876
0.787035
0.784598
0.784483
0.79054
0.808733
0.824692
0.813367
0.784382
0.999939
1
1
1
1
0.999991
0.999968
0.99994
0.999938
0.999936
0.999941
0.999955
0.999975
0.99999
0.999999
0.999985
0.999993
1
1
1
0.999995
0.999982
0.999959
0.999931
0.99991
0.999924
0.999946
0.99995
0.999956
0.999972
0.999985
0.999997
0.999992
0.999956
0.999998
1
1
1
1
0.999992
0.999975
0.999947
0.999922
0.999919
0.999932
0.999953
0.999964
0.999953
0.999933
0.999947
0.999984
0.999992
0.999963
0.999973
0.999983
0.999994
1
1
0.999965
0.999963
1
1
1
1
0.999999
0.999993
0.999981
0.999953
0.999851
0.999519
0.998516
0.9957
0.988548
0.97184
0.941509
0.902904
0.871636
0.863306
0.882952
0.92368
0.969389
0.999297
1
0.998808
0.997807
0.998495
1
0.998879
0.997085
0.996394
0.997147
0.999099
1
0.999984
0.999983
0.999987
0.999989
0.999993
0.999997
1
1
1
0.999927
0.999979
1
1
1
1
1
1
0.999996
0.9999
0.999455
0.998439
0.996387
0.992525
0.98565
0.974109
0.955827
0.930154
0.90104
0.873434
0.845771
0.818616
0.809675
0.825338
0.846993
0.848171
0.815267
0.784459
0.785122
0.788519
0.791151
0.784975
0.784275
0.784091
0.784147
0.784068
0.784601
0.784345
0.784108
0.78395
0.784035
0.78406
0.78471
0.786285
0.787682
0.788809
0.789516
0.790472
0.792124
0.794931
0.799422
0.805452
0.814895
0.833431
0.865324
0.908226
0.952524
0.982732
0.993601
0.996883
0.999415
1
0.999997
0.999998
0.999998
0.999998
0.999997
0.999998
1
1
0.999993
0.999967
0.999996
1
1
1
1
1
0.99999
0.999862
0.998891
0.993392
0.972903
0.932072
0.909138
0.940095
0.948921
0.888611
0.800155
0.789466
0.846351
0.851283
0.794609
0.791476
0.813439
0.789259
0.783617
0.784537
0.783639
0.784283
0.783967
0.784715
0.784269
0.785268
0.783665
0.783472
0.785428
0.784262
0.786036
0.786265
0.784517
0.784643
0.788099
0.801936
0.818964
0.817539
0.79495
0.783465
0.999941
1
1
1
1
0.999988
0.999965
0.999937
0.999936
0.999936
0.999941
0.999957
0.999976
0.999991
0.999998
0.999986
0.999996
1
1
1
0.999994
0.99998
0.999956
0.999929
0.999911
0.999928
0.999947
0.999949
0.999959
0.999973
0.999988
0.999999
0.99998
0.999957
1
1
1
1
1
0.999989
0.999971
0.999942
0.99992
0.999919
0.999935
0.999957
0.999964
0.999951
0.999935
0.999952
0.999992
0.999984
0.999963
0.999975
0.999985
0.999996
1
1
0.999949
0.999986
1
1
1
1
0.999998
0.999991
0.999977
0.999939
0.999801
0.999364
0.998066
0.994502
0.985532
0.965722
0.932841
0.89518
0.869157
0.868343
0.895139
0.939888
0.982683
1
0.999783
0.998567
0.998004
0.998913
0.999918
0.998391
0.996835
0.996601
0.997782
0.99968
1
0.999979
0.999985
0.999987
0.99999
0.999993
0.999998
1
1
0.999957
0.999993
0.999989
1
1
1
1
1
0.999994
0.999952
0.999852
0.999631
0.998696
0.995812
0.990243
0.981701
0.968891
0.949196
0.921971
0.892205
0.863837
0.83294
0.811566
0.815167
0.83791
0.851828
0.837883
0.798884
0.786211
0.785276
0.79103
0.790028
0.784459
0.784109
0.784116
0.784147
0.78414
0.784419
0.784563
0.78414
0.784384
0.784162
0.784555
0.785922
0.78753
0.788767
0.789859
0.790827
0.792275
0.794419
0.797957
0.803535
0.810931
0.824523
0.849819
0.88818
0.933313
0.972281
0.991756
0.996599
0.998689
0.999989
1
0.999997
0.999998
0.999998
0.999998
0.999998
1
1
1
1
0.999995
1
1
1
1
1
1
1
0.999892
0.998383
0.988564
0.958431
0.920131
0.927725
0.957366
0.931288
0.847768
0.786121
0.815453
0.863206
0.828478
0.784307
0.799818
0.808662
0.787486
0.783983
0.785559
0.785004
0.784697
0.783989
0.784221
0.783648
0.78576
0.785116
0.785415
0.783816
0.784174
0.786219
0.784232
0.784219
0.784422
0.792947
0.81066
0.818671
0.804599
0.785604
0.783518
0.999943
1
1
1
1
0.999986
0.999963
0.999937
0.999936
0.999937
0.999942
0.999959
0.999978
0.999992
0.999996
0.999982
1
1
1
1
0.999992
0.999977
0.999952
0.999923
0.999907
0.999928
0.999949
0.999948
0.999961
0.999975
0.999988
0.999999
0.999985
0.999944
1
1
1
1
1
0.999987
0.999966
0.999937
0.999918
0.999922
0.99994
0.999959
0.999961
0.999945
0.999934
0.999961
0.999997
0.999975
0.999965
0.999978
0.999988
1
1
0.999992
0.999974
0.999991
1
1
1
1
0.999997
0.999989
0.999973
0.999921
0.999738
0.999162
0.997482
0.992985
0.981918
0.959055
0.924303
0.888575
0.868783
0.876108
0.909345
0.954799
0.990076
1
0.999384
0.998462
0.998258
0.999203
0.999664
0.997924
0.996731
0.996968
0.998492
1
1
0.99998
0.999986
0.999988
0.999992
0.999996
1
1
1
0.999955
0.999966
1
1
1
1
1
1
0.999998
0.999998
0.999896
0.999171
0.997162
0.993435
0.987489
0.977803
0.961693
0.937508
0.908655
0.881198
0.852228
0.822176
0.808585
0.821515
0.844059
0.850013
0.818211
0.786492
0.783991
0.789474
0.792446
0.78549
0.78408
0.784113
0.784248
0.7842
0.784107
0.784114
0.784339
0.784591
0.784269
0.784137
0.785479
0.787032
0.788546
0.789781
0.790914
0.792133
0.793998
0.796919
0.801805
0.808363
0.818341
0.837506
0.869779
0.912862
0.956617
0.986381
0.996368
0.998259
0.999641
1
0.999997
0.999998
0.999998
0.999998
0.999998
0.999998
0.999999
1
1
0.999964
0.999998
1
1
1
1
1
0.999999
0.999932
0.999187
0.994189
0.975081
0.937882
0.918093
0.946252
0.952459
0.895072
0.808385
0.78398
0.840244
0.852413
0.798162
0.789564
0.81106
0.802076
0.785713
0.783765
0.783633
0.784844
0.783717
0.783882
0.783847
0.784018
0.783385
0.786008
0.784705
0.787231
0.78569
0.784612
0.78414
0.785675
0.789299
0.804497
0.816642
0.808329
0.785556
0.784196
0.784521
0.999946
1
1
1
0.999999
0.999984
0.999959
0.999934
0.999936
0.999937
0.999943
0.999962
0.99998
0.999993
0.999994
0.999986
1
1
1
1
0.999991
0.999974
0.999948
0.999921
0.999912
0.99993
0.99995
0.999949
0.999963
0.999977
0.99999
0.999999
0.999974
0.999958
1
1
1
1
0.999999
0.999984
0.999961
0.999933
0.999917
0.999923
0.999943
0.999959
0.999958
0.99994
0.999934
0.999968
0.999998
0.999968
0.999968
0.99998
0.99999
1
1
0.999994
0.999937
1
1
1
1
1
0.999995
0.999986
0.999965
0.999893
0.999649
0.998901
0.99675
0.991101
0.977616
0.951733
0.915931
0.883483
0.870712
0.885745
0.923503
0.967978
0.999209
1
0.999141
0.998446
0.998522
0.999354
0.999325
0.997543
0.996795
0.997454
0.999145
1
0.999985
0.999983
0.999987
0.999989
0.999993
0.999998
1
1
0.999991
0.99995
0.999989
1
1
1
1
1
1
0.999998
0.999871
0.999422
0.998426
0.996259
0.991833
0.984125
0.971993
0.953863
0.929424
0.901805
0.872593
0.83994
0.814125
0.813122
0.834458
0.851886
0.83951
0.801168
0.785613
0.785108
0.792404
0.790944
0.78486
0.784177
0.784093
0.784193
0.784065
0.783975
0.78434
0.784728
0.784209
0.784111
0.784965
0.786799
0.788312
0.789774
0.79096
0.792115
0.793681
0.796225
0.80049
0.806476
0.814453
0.828457
0.854153
0.892707
0.937639
0.975835
0.994638
0.998351
0.999239
0.999985
1
0.999998
0.999998
0.999998
0.999998
0.999999
1
1
1
0.999989
0.999991
1
1
1
1
1
1
0.999973
0.999728
0.997933
0.988521
0.961182
0.927109
0.934674
0.96165
0.937873
0.858387
0.783917
0.805672
0.856912
0.830866
0.783603
0.794854
0.807728
0.785811
0.786171
0.78404
0.784899
0.784427
0.78416
0.785246
0.784685
0.785127
0.784207
0.785298
0.784785
0.784373
0.784191
0.784584
0.783785
0.784635
0.794223
0.809059
0.809515
0.793276
0.783752
0.785104
0.784293
0.99995
1
1
1
0.999998
0.999982
0.999956
0.999934
0.999935
0.999937
0.999944
0.999964
0.999981
0.999994
0.999994
0.999981
1
1
1
1
0.999989
0.999972
0.999944
0.999916
0.99991
0.999931
0.99995
0.99995
0.999965
0.999978
0.999992
1
0.99996
0.999963
1
1
1
1
0.999997
0.999981
0.999956
0.999929
0.999916
0.999927
0.999947
0.999962
0.999956
0.999936
0.999945
0.999979
0.999994
0.999963
0.999971
0.999982
0.999992
1
1
0.999987
0.999966
1
1
1
1
0.999999
0.999994
0.999983
0.999957
0.99986
0.999541
0.998571
0.995819
0.988744
0.972647
0.944116
0.908319
0.88024
0.874861
0.89681
0.938664
0.981998
1
0.999867
0.998952
0.998516
0.998757
0.999376
0.998944
0.997271
0.996995
0.998041
0.999648
1
0.99998
0.999985
0.999988
0.999991
0.999994
0.999999
1
1
0.999998
0.999963
1
1
1
1
1
1
0.999987
0.999943
0.999887
0.999652
0.9984
0.995087
0.989238
0.98042
0.966768
0.945785
0.918385
0.889534
0.859412
0.826747
0.809034
0.818189
0.841365
0.85047
0.821747
0.789339
0.784169
0.790061
0.793471
0.785213
0.784282
0.784149
0.784088
0.784247
0.78412
0.784141
0.784732
0.784319
0.784245
0.784641
0.786283
0.788138
0.789486
0.790837
0.791981
0.7933
0.79542
0.79915
0.804934
0.811805
0.822311
0.841697
0.874246
0.91729
0.960436
0.989247
0.998379
0.999148
0.999765
1
0.999998
0.999998
0.999998
0.999998
0.999998
0.999999
1
1
0.99997
1
0.999987
1
1
1
1
1
1
0.999998
0.999526
0.99535
0.978218
0.944707
0.92735
0.953383
0.95921
0.905726
0.815481
0.786043
0.833462
0.853991
0.806008
0.784805
0.804093
0.803342
0.788882
0.784166
0.785495
0.783975
0.783992
0.784052
0.783316
0.785378
0.784746
0.784065
0.783803
0.785769
0.787141
0.784756
0.784859
0.7869
0.790291
0.804184
0.81272
0.800986
0.78387
0.783619
0.785919
0.786068
0.999954
1
1
1
0.999997
0.999979
0.999954
0.999931
0.99994
0.999937
0.999945
0.999966
0.999983
0.999995
0.999993
0.999982
1
1
1
0.999999
0.999987
0.999968
0.99994
0.999913
0.999917
0.999935
0.999949
0.999951
0.999967
0.99998
0.999994
0.999997
0.999957
0.999975
1
1
1
1
0.999995
0.999978
0.999951
0.999925
0.999916
0.99993
0.999949
0.99996
0.99995
0.999931
0.999948
0.999985
0.999989
0.999962
0.999973
0.999984
0.999994
1
1
0.999948
0.99997
1
1
1
1
0.999998
0.999992
0.99998
0.999943
0.999813
0.999392
0.998134
0.994647
0.985898
0.967064
0.936296
0.901584
0.878829
0.880977
0.910005
0.953912
0.989153
1
0.999515
0.998876
0.998625
0.998927
0.999291
0.998568
0.997132
0.997331
0.998678
1
1
0.99998
0.999986
0.999989
0.999992
0.999997
1
1
1
0.999933
0.999972
1
1
1
1
1
1
1
0.999986
0.999699
0.998641
0.996331
0.99243
0.986112
0.975677
0.958966
0.935533
0.908778
0.880997
0.847933
0.818091
0.81186
0.830617
0.850198
0.842138
0.803852
0.785136
0.785734
0.793326
0.791541
0.784239
0.78406
0.784158
0.7842
0.784205
0.78447
0.784253
0.783932
0.784214
0.784175
0.785687
0.787636
0.789345
0.790568
0.791922
0.79315
0.794948
0.798247
0.803726
0.810346
0.818516
0.83288
0.858597
0.897239
0.941691
0.978976
0.996725
0.999526
0.999566
0.999974
1
0.999998
0.999998
0.999998
0.999998
0.999999
1
1
0.999998
0.999966
0.999998
1
1
1
1
1
1
0.999958
0.999634
0.997658
0.988676
0.964175
0.934543
0.941939
0.966462
0.94499
0.865646
0.785082
0.79978
0.848908
0.834768
0.784281
0.790458
0.806843
0.793755
0.783285
0.784487
0.78371
0.784077
0.783502
0.786485
0.785278
0.784575
0.78613
0.783857
0.78414
0.785299
0.785164
0.784343
0.784829
0.784748
0.794533
0.80738
0.804101
0.786927
0.783828
0.785448
0.790576
0.795988
0.999957
1
1
1
0.999996
0.999977
0.999951
0.999932
0.999937
0.999938
0.999947
0.999968
0.999984
0.999996
0.99999
0.999982
1
1
1
0.999999
0.999986
0.999966
0.999937
0.99991
0.999919
0.999935
0.999949
0.999953
0.999968
0.999982
0.999995
0.99999
0.999949
0.999979
1
1
1
1
0.999992
0.999975
0.999946
0.999922
0.999917
0.999933
0.999953
0.999961
0.999948
0.999935
0.999954
0.999993
0.99998
0.999963
0.999976
0.999986
0.999998
1
1
0.999958
0.99998
1
1
1
1
0.999997
0.99999
0.999975
0.999927
0.999753
0.999204
0.997588
0.99318
0.982475
0.960905
0.928603
0.896041