/*--------------------------------*- C++ -*----------------------------------*\
  =========                 |
  \\      /  F ield         | OpenFOAM: The Open Source CFD Toolbox
   \\    /   O peration     | Website:  https://openfoam.org
    \\  /    A nd           | Version:  6
     \\/     M anipulation  |
\*---------------------------------------------------------------------------*/
FoamFile
{
    version     2.0;
    format      ascii;
    class       volScalarField;
    location    "0";
    object      Ma;
}
// * * * * * * * * * * * * * * * * * * * * * * * * * * * * * * * * * * * * * //

dimensions      [0 0 0 0 0 0 0];

internalField   nonuniform List<scalar> 
97664
(
0.551787
0.549687
0.549467
0.550516
0.553632
0.558257
0.56301
0.566617
0.568599
0.569301
0.569436
0.567822
0.563271
0.557061
0.55161
0.548355
0.547148
0.54692
0.548504
0.552982
0.558938
0.564624
0.569228
0.572627
0.574904
0.576172
0.576684
0.576842
0.575717
0.571163
0.562843
0.553163
0.545271
0.540727
0.539048
0.538689
0.540716
0.546491
0.554185
0.561414
0.56705
0.571038
0.573756
0.575628
0.577017
0.578189
0.579333
0.580537
0.581742
0.582756
0.583394
0.583652
0.583738
0.582923
0.579038
0.570358
0.557734
0.544171
0.532929
0.525808
0.52258
0.52167
0.522366
0.527417
0.536467
0.546632
0.555427
0.561911
0.566258
0.569092
0.571065
0.572658
0.57419
0.57581
0.5775
0.579102
0.580453
0.581462
0.582145
0.58259
0.582896
0.583147
0.583427
0.583806
0.584348
0.585068
0.58591
0.586769
0.587552
0.588184
0.588633
0.588896
0.589019
0.589063
0.589057
0.588728
0.58725
0.58324
0.575431
0.563474
0.548263
0.531733
0.51624
0.503817
0.495553
0.491287
0.489806
0.489473
0.492018
0.499884
0.512482
0.527201
0.541383
0.553325
0.56234
0.568501
0.572292
0.574364
0.575339
0.575708
0.575807
0.575815
0.575698
0.575561
0.575503
0.575502
0.575647
0.576226
0.577335
0.578806
0.58037
0.581812
0.58301
0.583927
0.584578
0.585008
0.585273
0.585432
0.585526
0.585589
0.585642
0.585709
0.585815
0.585996
0.586301
0.586746
0.587319
0.587967
0.588623
0.589242
0.589799
0.590298
0.590743
0.591152
0.591524
0.591864
0.59216
0.592403
0.592586
0.592703
0.59276
0.592774
0.592759
0.592717
0.592606
0.592424
0.592136
0.591594
0.590396
0.587652
0.581817
0.570817
0.552793
0.527227
0.495988
0.463387
0.434948
0.41518
0.40508
0.401532
0.401745
0.410716
0.432042
0.463438
0.498373
0.530317
0.555001
0.571292
0.580387
0.584561
0.585993
0.586252
0.585976
0.585193
0.583912
0.582488
0.581216
0.580252
0.579626
0.579273
0.579109
0.579142
0.579432
0.580062
0.580975
0.58207
0.583271
0.584518
0.585789
0.587086
0.588411
0.589779
0.591201
0.592703
0.594297
0.595979
0.597676
0.599185
0.600365
0.601089
0.551791
0.549737
0.549569
0.550783
0.554068
0.558757
0.563422
0.566856
0.56868
0.569286
0.56934
0.567435
0.562621
0.556398
0.551162
0.548173
0.547143
0.547001
0.548896
0.553616
0.55961
0.565196
0.56967
0.572934
0.575078
0.57623
0.576666
0.576765
0.57528
0.570154
0.561469
0.551894
0.54446
0.540408
0.539034
0.538838
0.541421
0.547629
0.555372
0.562401
0.567768
0.571528
0.574083
0.57586
0.577201
0.578365
0.579527
0.580746
0.581934
0.582882
0.583437
0.583633
0.583657
0.582377
0.577512
0.567788
0.554667
0.541405
0.531041
0.524929
0.522432
0.521755
0.523268
0.529419
0.538999
0.548969
0.557219
0.563132
0.567052
0.56963
0.571488
0.573064
0.574623
0.576278
0.577961
0.579504
0.580757
0.581666
0.582271
0.582666
0.58295
0.583208
0.583512
0.583941
0.584546
0.585312
0.586175
0.587018
0.587756
0.588331
0.588712
0.588919
0.58901
0.589036
0.588967
0.58833
0.586045
0.580658
0.571184
0.557763
0.541769
0.525399
0.510974
0.500201
0.493667
0.490709
0.489851
0.490273
0.49487
0.504914
0.518714
0.533448
0.5468
0.55751
0.565263
0.570335
0.573307
0.574841
0.575509
0.575733
0.575787
0.575753
0.575617
0.575517
0.575489
0.575528
0.575855
0.576695
0.578011
0.579563
0.581093
0.582431
0.583492
0.584273
0.58481
0.585152
0.585359
0.585482
0.585559
0.585616
0.585674
0.585758
0.585899
0.58614
0.586516
0.587031
0.587651
0.588313
0.588955
0.589545
0.590074
0.590547
0.590974
0.591364
0.59172
0.592037
0.592306
0.592515
0.592661
0.592744
0.592776
0.592773
0.592749
0.59268
0.592538
0.592306
0.591895
0.591023
0.589014
0.58459
0.575852
0.560777
0.538231
0.509107
0.476803
0.446505
0.423287
0.409751
0.404422
0.40298
0.40753
0.423671
0.451313
0.48526
0.51864
0.546234
0.565677
0.577359
0.583228
0.585536
0.586128
0.586041
0.585481
0.584341
0.582907
0.58154
0.58045
0.579699
0.579258
0.579032
0.578988
0.579158
0.579672
0.580498
0.581541
0.582709
0.583936
0.585189
0.586458
0.587753
0.589082
0.59047
0.591935
0.593495
0.595133
0.59677
0.598195
0.599248
0.599874
0.600117
0.551798
0.5498
0.549692
0.551067
0.55452
0.559251
0.563814
0.567074
0.568746
0.569265
0.569218
0.567009
0.561952
0.555752
0.550749
0.54802
0.547134
0.547106
0.549322
0.554264
0.560272
0.565756
0.570092
0.573222
0.575231
0.576277
0.576644
0.576657
0.574768
0.569078
0.56009
0.550685
0.543733
0.540151
0.539022
0.539054
0.542202
0.548791
0.556538
0.563342
0.568441
0.571983
0.57439
0.576078
0.577382
0.578544
0.579724
0.580957
0.582117
0.582988
0.583459
0.583613
0.583515
0.581655
0.575745
0.565065
0.551625
0.538826
0.529406
0.524248
0.522373
0.521948
0.524433
0.531596
0.541508
0.551174
0.558852
0.564229
0.567765
0.57013
0.571904
0.573473
0.575068
0.576745
0.578406
0.579875
0.58103
0.581843
0.582378
0.582735
0.583006
0.583274
0.583613
0.584096
0.584759
0.585569
0.586437
0.587256
0.587945
0.588453
0.58877
0.588927
0.58899
0.589001
0.588805
0.587697
0.584372
0.577448
0.566335
0.551679
0.535265
0.51944
0.506364
0.497331
0.492414
0.490538
0.490029
0.491793
0.49865
0.510544
0.525032
0.539375
0.551681
0.561123
0.567672
0.57177
0.574053
0.57516
0.575602
0.575733
0.575759
0.575674
0.575553
0.575491
0.57549
0.575624
0.57618
0.577275
0.578742
0.580314
0.581771
0.58298
0.583903
0.584559
0.584993
0.585263
0.585424
0.585523
0.585588
0.585644
0.585714
0.585821
0.586008
0.586315
0.586766
0.587343
0.587993
0.588652
0.589272
0.589834
0.590334
0.590784
0.591192
0.591567
0.591902
0.592192
0.592428
0.592603
0.592715
0.592769
0.592781
0.592766
0.592729
0.592628
0.592447
0.592131
0.591494
0.590041
0.586748
0.579954
0.567613
0.548155
0.521602
0.490373
0.459045
0.432911
0.415746
0.407656
0.405036
0.406234
0.41725
0.440296
0.472051
0.506009
0.536062
0.558709
0.573287
0.581229
0.584755
0.585879
0.586038
0.585694
0.584767
0.583384
0.581941
0.580728
0.579846
0.579298
0.578996
0.578868
0.578945
0.579318
0.580045
0.58102
0.582149
0.583352
0.584583
0.58583
0.587094
0.588389
0.589736
0.591161
0.592681
0.594276
0.595858
0.597241
0.598279
0.598915
0.599178
0.599271
0.551816
0.549872
0.549836
0.551376
0.554983
0.559743
0.564191
0.567274
0.568798
0.569243
0.569071
0.566553
0.561279
0.555126
0.55037
0.547891
0.547128
0.547241
0.54978
0.554923
0.560928
0.5663
0.570501
0.573494
0.57537
0.57631
0.576622
0.576511
0.574183
0.567938
0.558712
0.549542
0.54309
0.539949
0.539018
0.539343
0.54306
0.549976
0.557674
0.564235
0.569075
0.572409
0.57468
0.576288
0.57756
0.578726
0.579925
0.581163
0.582286
0.583075
0.583464
0.583596
0.583292
0.580736
0.573741
0.562215
0.54864
0.536446
0.528015
0.523745
0.522364
0.522304
0.525865
0.533912
0.543975
0.553238
0.560335
0.565213
0.568412
0.570603
0.572315
0.573893
0.57552
0.577209
0.57883
0.580216
0.581271
0.581996
0.582473
0.582798
0.583063
0.58335
0.583728
0.58427
0.584989
0.585829
0.586691
0.587476
0.58811
0.58855
0.588806
0.588925
0.588965
0.588945
0.588519
0.586737
0.582152
0.573596
0.560943
0.545346
0.5289
0.513974
0.502447
0.495153
0.491642
0.490522
0.490539
0.494207
0.503287
0.516571
0.53126
0.544885
0.556012
0.564192
0.569628
0.572875
0.574587
0.57536
0.575638
0.575717
0.575709
0.575599
0.575505
0.57548
0.575512
0.575817
0.576632
0.57794
0.579497
0.581041
0.58239
0.583462
0.584251
0.58479
0.585135
0.585349
0.585476
0.585555
0.585614
0.585674
0.585764
0.585907
0.586151
0.58653
0.587052
0.587674
0.588336
0.58898
0.589574
0.590107
0.59058
0.591011
0.591401
0.591757
0.59207
0.592329
0.592531
0.592673
0.592751
0.592781
0.59278
0.592757
0.592694
0.592561
0.592318
0.591848
0.590803
0.588396
0.583219
0.573339
0.556913
0.533236
0.503748
0.472219
0.443791
0.422997
0.41161
0.407437
0.406715
0.412881
0.430839
0.459312
0.492723
0.524607
0.550294
0.568019
0.578447
0.583561
0.585501
0.585969
0.585797
0.585143
0.583895
0.582419
0.581082
0.580064
0.579389
0.579003
0.578804
0.578783
0.579023
0.579625
0.580517
0.581594
0.582772
0.583982
0.585206
0.586442
0.587705
0.589016
0.590396
0.591871
0.593422
0.594969
0.596349
0.597402
0.59805
0.598364
0.598481
0.598535
0.551845
0.549962
0.549991
0.551704
0.555458
0.560227
0.564554
0.567456
0.568837
0.569218
0.568896
0.566067
0.560598
0.554524
0.550022
0.547782
0.547124
0.547408
0.550267
0.555585
0.561571
0.566829
0.570893
0.573747
0.575493
0.576329
0.576598
0.576324
0.573514
0.566746
0.557347
0.548463
0.542519
0.53979
0.539026
0.539711
0.543984
0.551168
0.558779
0.565088
0.569669
0.572808
0.57495
0.576491
0.577739
0.578913
0.580131
0.581364
0.58244
0.583144
0.583455
0.583565
0.582973
0.579599
0.571521
0.559279
0.545754
0.534287
0.526857
0.523387
0.522387
0.522866
0.527545
0.536317
0.546365
0.555155
0.561683
0.5661
0.569007
0.571057
0.572729
0.574322
0.575978
0.577666
0.579234
0.580528
0.581483
0.582131
0.582554
0.582859
0.583124
0.583434
0.58386
0.584463
0.585231
0.586091
0.586941
0.587679
0.58825
0.588626
0.588826
0.588913
0.588936
0.588834
0.588045
0.58536
0.579325
0.569115
0.555113
0.538915
0.522827
0.50911
0.499281
0.493658
0.49132
0.490625
0.491713
0.497547
0.508612
0.522783
0.537237
0.549905
0.559785
0.566749
0.571184
0.573706
0.574959
0.575483
0.575651
0.575691
0.575644
0.575538
0.575479
0.575474
0.575596
0.576127
0.577202
0.578667
0.58025
0.581719
0.582939
0.583873
0.584534
0.584973
0.585249
0.585414
0.585515
0.585584
0.585644
0.585714
0.585827
0.586016
0.586329
0.586781
0.587361
0.588012
0.588672
0.589296
0.589859
0.590365
0.590817
0.591227
0.5916
0.591933
0.592217
0.592448
0.592615
0.592721
0.592773
0.592787
0.592772
0.592739
0.592645
0.592464
0.592116
0.591366
0.58963
0.585764
0.578027
0.564463
0.543821
0.516615
0.485697
0.455775
0.43181
0.416857
0.410343
0.408357
0.410736
0.423268
0.447522
0.47925
0.512066
0.54044
0.56139
0.574652
0.581748
0.584821
0.585746
0.585854
0.585435
0.584393
0.582952
0.58152
0.580358
0.579545
0.579053
0.57879
0.578685
0.578797
0.579258
0.580039
0.581052
0.582194
0.583388
0.584592
0.585802
0.587033
0.588305
0.589646
0.591074
0.592586
0.594115
0.595512
0.596598
0.597278
0.597626
0.597762
0.597812
0.597922
0.551884
0.550064
0.550166
0.552053
0.555942
0.560704
0.564897
0.567622
0.568864
0.569191
0.56869
0.565554
0.559918
0.553949
0.549707
0.547692
0.547128
0.547607
0.550781
0.556256
0.562203
0.567342
0.571268
0.573986
0.575599
0.576334
0.576574
0.576087
0.572771
0.565506
0.556008
0.547462
0.54202
0.539676
0.539062
0.540158
0.544965
0.552365
0.559848
0.565892
0.570226
0.573182
0.575205
0.576686
0.577918
0.579103
0.580339
0.581563
0.582576
0.583198
0.583439
0.58351
0.582522
0.578231
0.569102
0.556298
0.543002
0.532363
0.525926
0.52319
0.522446
0.523676
0.529437
0.538765
0.548656
0.556924
0.562902
0.5669
0.569557
0.571497
0.573144
0.574761
0.576441
0.578111
0.579611
0.580811
0.581671
0.582245
0.582627
0.582916
0.583193
0.583532
0.584013
0.584674
0.585484
0.586352
0.587175
0.587865
0.588371
0.58868
0.588832
0.588891
0.588897
0.588636
0.587299
0.583482
0.575868
0.564062
0.548967
0.532544
0.517179
0.504912
0.49681
0.492669
0.491239
0.490956
0.493689
0.501758
0.51441
0.528979
0.542846
0.554391
0.563017
0.568845
0.572392
0.574307
0.575203
0.575544
0.575643
0.575658
0.575576
0.57549
0.575466
0.575495
0.575775
0.576566
0.57786
0.579421
0.580975
0.582338
0.583421
0.58422
0.584767
0.58512
0.585336
0.585465
0.585547
0.58561
0.585674
0.585764
0.585909
0.586156
0.586541
0.587064
0.587688
0.588353
0.589001
0.589596
0.590131
0.590609
0.591041
0.591434
0.591786
0.592094
0.592349
0.592543
0.592677
0.592755
0.592783
0.592784
0.592763
0.592707
0.592577
0.592321
0.591781
0.59054
0.587705
0.581777
0.570828
0.553233
0.528711
0.499157
0.468593
0.442015
0.423419
0.413769
0.4104
0.410337
0.418025
0.437194
0.466092
0.49879
0.529229
0.553312
0.569666
0.579154
0.583734
0.585429
0.585799
0.585596
0.584853
0.58352
0.582034
0.580735
0.579776
0.579161
0.578813
0.578634
0.578639
0.57894
0.579604
0.580534
0.581629
0.582794
0.583984
0.585176
0.586379
0.587616
0.588914
0.590303
0.591777
0.593288
0.594703
0.595828
0.596571
0.596968
0.597126
0.597184
0.597235
0.597465
0.55193
0.550178
0.55036
0.552422
0.556432
0.561172
0.565224
0.56777
0.568879
0.569159
0.568455
0.565011
0.559238
0.553403
0.549419
0.547618
0.547141
0.547839
0.551317
0.556927
0.562824
0.567839
0.571625
0.574206
0.575691
0.57633
0.576542
0.575798
0.57195
0.56423
0.554699
0.546532
0.541584
0.539607
0.539127
0.540686
0.545999
0.553551
0.560876
0.566657
0.57075
0.573534
0.575449
0.576877
0.578097
0.579299
0.580547
0.581751
0.582696
0.583236
0.58342
0.583409
0.581919
0.576628
0.566514
0.553319
0.540408
0.530671
0.525187
0.523114
0.522596
0.524725
0.531505
0.541209
0.550826
0.558546
0.564
0.567623
0.570074
0.571926
0.573565
0.575208
0.576901
0.578537
0.579962
0.581062
0.581832
0.582346
0.582694
0.582973
0.583267
0.583644
0.584185
0.584899
0.585743
0.586608
0.587395
0.588026
0.588464
0.588715
0.588828
0.588865
0.588829
0.588292
0.586196
0.581036
0.571778
0.558526
0.542649
0.526386
0.512074
0.501428
0.49501
0.492125
0.491287
0.491796
0.496568
0.506724
0.520477
0.534987
0.547996
0.55833
0.565734
0.57053
0.573312
0.574735
0.575355
0.575569
0.575623
0.575607
0.575518
0.57546
0.575456
0.575568
0.57607
0.577122
0.578581
0.580172
0.581655
0.58289
0.583835
0.584504
0.58495
0.585231
0.585401
0.585506
0.585578
0.58564
0.585714
0.585826
0.58602
0.586333
0.586789
0.58737
0.588022
0.588687
0.589313
0.589882
0.590388
0.590844
0.591257
0.591629
0.591958
0.592235
0.59246
0.592621
0.592725
0.592773
0.592789
0.592776
0.592746
0.592663
0.592476
0.592087
0.591206
0.589162
0.584712
0.576068
0.561409
0.539814
0.512236
0.481861
0.453394
0.431425
0.418338
0.412979
0.411474
0.414916
0.428845
0.453754
0.485207
0.516882
0.543765
0.563338
0.575579
0.582054
0.584814
0.585617
0.585672
0.585207
0.584088
0.582608
0.581196
0.580082
0.579327
0.578877
0.578632
0.578548
0.57869
0.579212
0.580043
0.581076
0.582217
0.583387
0.584563
0.585743
0.586946
0.588205
0.589546
0.590982
0.592472
0.593894
0.595072
0.595903
0.596362
0.596555
0.596623
0.596651
0.596765
0.597137
0.551987
0.550302
0.550569
0.55281
0.556928
0.561631
0.565535
0.567906
0.568881
0.569119
0.568191
0.564446
0.558565
0.552881
0.549157
0.54756
0.547167
0.548106
0.551878
0.557597
0.563433
0.56832
0.571966
0.574406
0.575765
0.576317
0.576493
0.575448
0.571053
0.562929
0.553431
0.545672
0.541214
0.539573
0.539232
0.541292
0.547075
0.554726
0.561862
0.567375
0.571241
0.57386
0.57568
0.577062
0.578279
0.579496
0.580756
0.581925
0.582793
0.583251
0.583397
0.583245
0.581135
0.574795
0.563788
0.550376
0.538001
0.529217
0.524632
0.523094
0.522869
0.526039
0.533719
0.543617
0.552865
0.560028
0.564994
0.568283
0.570563
0.572352
0.573995
0.575661
0.577353
0.578945
0.580282
0.581287
0.581977
0.582431
0.582756
0.583037
0.58335
0.583777
0.584372
0.585138
0.586003
0.586854
0.587598
0.588166
0.588539
0.588733
0.588813
0.588836
0.588696
0.587735
0.584643
0.577982
0.567096
0.55261
0.536309
0.520578
0.507593
0.498648
0.493799
0.491966
0.491475
0.49334
0.500328
0.512248
0.526608
0.540678
0.55264
0.561731
0.567978
0.571852
0.573995
0.575028
0.575442
0.575571
0.575599
0.575547
0.575474
0.575445
0.575473
0.575731
0.576492
0.577769
0.579332
0.580899
0.582278
0.583375
0.584183
0.584738
0.585097
0.585319
0.585453
0.585537
0.585604
0.585669
0.585761
0.585911
0.58616
0.586545
0.58707
0.587696
0.588363
0.589011
0.589611
0.590151
0.590634
0.591066
0.591459
0.59181
0.592111
0.592362
0.592552
0.592679
0.592754
0.592784
0.592787
0.592764
0.592716
0.592591
0.592311
0.591691
0.590237
0.586959
0.580286
0.568351
0.549766
0.524651
0.495266
0.465772
0.440935
0.424254
0.416029
0.41327
0.4138
0.422737
0.442878
0.471796
0.503708
0.532831
0.555554
0.570827
0.579606
0.583806
0.585329
0.585635
0.585415
0.584606
0.583225
0.581734
0.580474
0.579565
0.57899
0.57867
0.578508
0.578535
0.578882
0.579591
0.580548
0.581647
0.5828
0.583958
0.585119
0.586295
0.587517
0.588815
0.590209
0.591674
0.593109
0.59436
0.595269
0.595789
0.596029
0.59611
0.596127
0.59618
0.596422
0.596993
0.552055
0.550438
0.550796
0.553215
0.557427
0.56208
0.565828
0.568025
0.568874
0.569072
0.567895
0.56386
0.557902
0.552391
0.548926
0.547525
0.547206
0.548403
0.552458
0.558267
0.564031
0.568785
0.572291
0.574591
0.575829
0.5763
0.576423
0.575035
0.570088
0.561608
0.552206
0.544891
0.540905
0.539559
0.539377
0.541983
0.548186
0.555879
0.562809
0.568056
0.571699
0.574167
0.575901
0.577249
0.578464
0.579698
0.580961
0.58209
0.582876
0.583254
0.58338
0.582992
0.580149
0.572741
0.560962
0.547512
0.535797
0.527994
0.524231
0.5231
0.523345
0.527595
0.53603
0.545959
0.554767
0.561376
0.565891
0.568893
0.571031
0.572778
0.574432
0.576118
0.577798
0.579329
0.580574
0.581482
0.582098
0.582511
0.582817
0.583103
0.583447
0.583926
0.584582
0.585392
0.586261
0.587087
0.58778
0.588284
0.588589
0.588737
0.588791
0.588793
0.588458
0.586876
0.58257
0.574299
0.561884
0.546447
0.5301
0.515243
0.503777
0.496529
0.493052
0.491951
0.491998
0.495755
0.504899
0.518128
0.532622
0.545954
0.556749
0.564616
0.569802
0.572872
0.574484
0.575214
0.575481
0.575555
0.575562
0.575495
0.575441
0.575436
0.575537
0.57601
0.577033
0.578484
0.580083
0.581581
0.582833
0.58379
0.584469
0.584924
0.58521
0.585385
0.585492
0.585567
0.585632
0.585708
0.585824
0.586019
0.586335
0.586793
0.587374
0.588031
0.588696
0.589324
0.589896
0.590407
0.590865
0.591278
0.59165
0.591975
0.592248
0.592465
0.592623
0.592721
0.592773
0.592788
0.592776
0.59275
0.592672
0.592479
0.592041
0.591015
0.588645
0.583605
0.574106
0.558481
0.536142
0.508426
0.478745
0.451726
0.431542
0.420026
0.41559
0.414452
0.418847
0.433866
0.459181
0.490119
0.520712
0.546299
0.564749
0.5762
0.582219
0.584762
0.585489
0.585503
0.585006
0.58384
0.582341
0.58095
0.579881
0.579168
0.578749
0.578518
0.578449
0.578624
0.57918
0.58005
0.581095
0.582221
0.583368
0.584512
0.585665
0.586851
0.588107
0.589455
0.590891
0.592335
0.593636
0.59463
0.595253
0.595552
0.595652
0.595675
0.595683
0.595822
0.596211
0.597021
0.552129
0.550591
0.551043
0.553635
0.55793
0.562514
0.566101
0.568129
0.568864
0.569009
0.567566
0.563257
0.557249
0.551926
0.548717
0.547503
0.547263
0.548734
0.553056
0.558931
0.564612
0.569233
0.572597
0.574758
0.57588
0.576279
0.576324
0.574553
0.569056
0.560277
0.551035
0.544188
0.540656
0.539547
0.539592
0.542749
0.549323
0.557009
0.563711
0.568695
0.572128
0.574458
0.576113
0.577432
0.578654
0.579907
0.581161
0.582241
0.582941
0.583241
0.583345
0.582633
0.578945
0.570485
0.558073
0.54476
0.533815
0.526992
0.523973
0.523131
0.524052
0.529368
0.538398
0.548211
0.556526
0.562602
0.566703
0.569462
0.571487
0.573208
0.574874
0.576573
0.578226
0.579686
0.580837
0.581656
0.582207
0.582581
0.582877
0.583175
0.583559
0.584092
0.584803
0.585646
0.586515
0.587306
0.58794
0.588377
0.588622
0.588729
0.588762
0.588711
0.588056
0.585629
0.579916
0.570009
0.556238
0.540182
0.524165
0.510486
0.500679
0.49507
0.492743
0.492049
0.493169
0.499057
0.510113
0.524159
0.538381
0.55075
0.560327
0.567022
0.571251
0.57364
0.574827
0.575329
0.575493
0.575534
0.575514
0.575451
0.575424
0.575449
0.575685
0.576415
0.57767
0.579229
0.58081
0.582203
0.583318
0.58414
0.584704
0.585071
0.585299
0.585437
0.585527
0.585594
0.585664
0.585756
0.585905
0.586158
0.586545
0.58707
0.587699
0.588366
0.589018
0.589622
0.590165
0.590651
0.591087
0.591479
0.591826
0.592124
0.592368
0.592552
0.592676
0.592749
0.592779
0.592783
0.592765
0.592722
0.592597
0.592292
0.591578
0.589889
0.586159
0.578769
0.565936
0.54653
0.52103
0.491989
0.463608
0.440396
0.425339
0.418276
0.416068
0.417143
0.42705
0.447878
0.476653
0.507692
0.535644
0.557228
0.571636
0.579879
0.583803
0.585212
0.585482
0.585248
0.584396
0.582992
0.581507
0.580282
0.579412
0.57887
0.578569
0.578418
0.578465
0.578843
0.579583
0.58056
0.581655
0.582788
0.583919
0.585051
0.586208
0.587423
0.588724
0.590123
0.591561
0.592908
0.593998
0.594726
0.5951
0.595236
0.595271
0.595265
0.595319
0.595565
0.596153
0.597234
0.552217
0.550753
0.551311
0.554074
0.558429
0.562936
0.566358
0.568216
0.568854
0.568929
0.567204
0.562634
0.556611
0.551493
0.548536
0.547492
0.547333
0.549099
0.553668
0.559592
0.565181
0.569666
0.572883
0.574905
0.575922
0.576259
0.576193
0.573998
0.567965
0.558945
0.549927
0.543562
0.540458
0.539542
0.539876
0.543592
0.550478
0.55811
0.564571
0.569295
0.572531
0.574732
0.576318
0.577615
0.578847
0.580114
0.581356
0.582375
0.58299
0.583223
0.583278
0.582143
0.57752
0.568049
0.555162
0.542151
0.53206
0.526193
0.523856
0.523236
0.524986
0.531319
0.540774
0.550355
0.558147
0.563711
0.567444
0.569995
0.571933
0.573639
0.575323
0.577024
0.578636
0.580018
0.581074
0.581809
0.582302
0.582648
0.582941
0.583259
0.583684
0.584279
0.585042
0.585907
0.586761
0.587509
0.588078
0.588447
0.588637
0.588713
0.588737
0.588554
0.587411
0.58391
0.576652
0.565159
0.550275
0.533962
0.518636
0.506365
0.49825
0.494095
0.492661
0.492375
0.495118
0.503187
0.515765
0.530157
0.543772
0.555034
0.563391
0.56899
0.572377
0.574204
0.575057
0.575388
0.575487
0.575508
0.575466
0.57542
0.575414
0.575504
0.575946
0.576938
0.578377
0.57998
0.581496
0.582765
0.583736
0.58443
0.584894
0.585186
0.585367
0.585478
0.585556
0.585622
0.585699
0.585818
0.586014
0.586331
0.586789
0.587374
0.588029
0.588696
0.58933
0.589905
0.59042
0.590882
0.591296
0.591666
0.591986
0.592257
0.592466
0.592617
0.592714
0.592765
0.592784
0.592775
0.59275
0.592677
0.592473
0.591976
0.590791
0.588082
0.582459
0.572161
0.5557
0.5328
0.505122
0.476218
0.450584
0.432002
0.421804
0.418057
0.417342
0.422559
0.438361
0.463863
0.494214
0.52376
0.54824
0.565768
0.576604
0.582286
0.584675
0.585356
0.585345
0.584831
0.58364
0.582137
0.580767
0.579736
0.579056
0.57866
0.578439
0.57838
0.578582
0.579171
0.58005
0.581104
0.582218
0.583338
0.584456
0.585585
0.586761
0.58802
0.589375
0.5908
0.592186
0.593364
0.594201
0.594665
0.594856
0.594903
0.594893
0.594901
0.595043
0.595441
0.596266
0.597565
0.552318
0.550924
0.5516
0.554526
0.55893
0.563344
0.566592
0.568296
0.568839
0.568826
0.56681
0.562
0.555986
0.551088
0.548382
0.547485
0.547428
0.5495
0.554294
0.560244
0.565736
0.570082
0.573155
0.575039
0.575945
0.576235
0.57602
0.573369
0.566822
0.55763
0.548883
0.543007
0.540304
0.539549
0.540236
0.544493
0.55164
0.559177
0.565386
0.569862
0.572908
0.574989
0.576517
0.577802
0.579045
0.580322
0.581541
0.582489
0.583023
0.583204
0.583163
0.581494
0.575865
0.565462
0.552266
0.539709
0.530531
0.525573
0.523813
0.523446
0.526161
0.533417
0.543125
0.552377
0.559633
0.564721
0.568125
0.570502
0.572373
0.574075
0.575775
0.577466
0.579026
0.58032
0.581281
0.581941
0.582385
0.582712
0.58301
0.583356
0.583831
0.584481
0.585288
0.586163
0.586994
0.587688
0.588192
0.588498
0.58864
0.588692
0.588687
0.588277
0.58644
0.581654
0.572776
0.559825
0.544133
0.527938
0.513623
0.502933
0.496467
0.493548
0.492702
0.493192
0.497936
0.508035
0.521658
0.535963
0.548721
0.558795
0.565966
0.570572
0.573238
0.574602
0.575201
0.575414
0.575474
0.575473
0.575426
0.5754
0.575425
0.575636
0.57633
0.577563
0.579118
0.580709
0.582125
0.583255
0.58409
0.584666
0.585042
0.585277
0.58542
0.585513
0.585584
0.585651
0.585748
0.585899
0.58615
0.586539
0.587065
0.587695
0.588366
0.589021
0.589627
0.590174
0.590662
0.5911
0.591491
0.591837
0.592131
0.592367
0.592546
0.592669
0.59274
0.592773
0.592779
0.592763
0.592724
0.592595
0.59226
0.591437
0.589503
0.585313
0.577236
0.563599
0.543526
0.51781
0.489226
0.461956
0.440234
0.426607
0.420524
0.418675
0.420411
0.431004
0.452265
0.480774
0.510957
0.537842
0.558472
0.57219
0.580025
0.583751
0.585086
0.585338
0.5851
0.584225
0.58281
0.581338
0.580143
0.579306
0.578787
0.578501
0.578353
0.578412
0.578822
0.579581
0.580566
0.581655
0.582766
0.583872
0.584983
0.586126
0.587338
0.588649
0.590044
0.591445
0.592699
0.593647
0.594237
0.594506
0.594577
0.594579
0.59455
0.594612
0.59486
0.595459
0.596535
0.597956
0.552434
0.551104
0.551908
0.554989
0.559428
0.563736
0.566811
0.568361
0.568822
0.5687
0.56639
0.561358
0.555384
0.550715
0.548249
0.547477
0.547549
0.549932
0.554932
0.560887
0.566276
0.570479
0.573408
0.575155
0.575956
0.576213
0.575802
0.572666
0.565634
0.556334
0.547908
0.542518
0.540189
0.539582
0.540671
0.545453
0.552803
0.560211
0.566158
0.570391
0.573262
0.575234
0.576713
0.577987
0.579243
0.580529
0.581716
0.582584
0.583039
0.583184
0.582978
0.58066
0.573991
0.562759
0.549428
0.537454
0.52923
0.525115
0.523806
0.523834
0.527579
0.535628
0.545421
0.554271
0.560992
0.565633
0.568751
0.570988
0.572811
0.574516
0.576226
0.577897
0.579393
0.580593
0.581465
0.58206
0.582463
0.582775
0.583082
0.583464
0.583994
0.584701
0.585543
0.586418
0.587213
0.587847
0.588286
0.588528
0.588631
0.588667
0.588589
0.587811
0.585053
0.57881
0.568317
0.554109
0.537951
0.522241
0.509201
0.500178
0.495258
0.493378
0.492875
0.494689
0.5016
0.51341
0.527603
0.541459
0.553183
0.562046
0.568092
0.571819
0.573879
0.57488
0.575287
0.575418
0.575453
0.575433
0.575395
0.57539
0.575467
0.575879
0.576835
0.578258
0.579867
0.581399
0.582687
0.583676
0.584385
0.584858
0.585158
0.585345
0.585462
0.585543
0.585612
0.58569
0.585808
0.586005
0.586323
0.586782
0.587369
0.588024
0.588695
0.589329
0.589908
0.590429
0.590891
0.591307
0.591675
0.591993
0.592256
0.592459
0.592608
0.592705
0.592756
0.592775
0.59277
0.592746
0.592677
0.592457
0.591893
0.590534
0.587473
0.581283
0.570246
0.553065
0.529758
0.502249
0.474175
0.44986
0.432715
0.423638
0.420446
0.420096
0.4261
0.442385
0.467891
0.497637
0.526216
0.549723
0.566493
0.576846
0.582275
0.584566
0.585217
0.585201
0.584683
0.58348
0.581981
0.580637
0.579632
0.578978
0.578597
0.578386
0.57833
0.578557
0.579166
0.580057
0.581105
0.582204
0.583301
0.584396
0.585511
0.586682
0.587943
0.589304
0.590705
0.592026
0.593091
0.5938
0.594152
0.594275
0.594289
0.594261
0.594259
0.594397
0.594807
0.595645
0.596887
0.598357
0.552566
0.551294
0.552235
0.555464
0.55992
0.564113
0.567011
0.568414
0.568803
0.568547
0.565936
0.560707
0.554802
0.550375
0.548139
0.547473
0.547699
0.550392
0.555578
0.561523
0.5668
0.570863
0.573645
0.575253
0.575955
0.576185
0.575535
0.571888
0.564411
0.555067
0.547002
0.542095
0.540123
0.539645
0.541183
0.546461
0.553959
0.561204
0.566889
0.570887
0.573593
0.575469
0.576904
0.578175
0.579447
0.580735
0.581879
0.582666
0.583036
0.583165
0.582704
0.579627
0.571909
0.559974
0.546682
0.535408
0.528144
0.524791
0.523828
0.524416
0.529222
0.537907
0.54764
0.55603
0.562234
0.566468
0.569337
0.571457
0.573249
0.574964
0.576675
0.578311
0.579732
0.58084
0.581629
0.582159
0.582534
0.582839
0.583164
0.583586
0.584174
0.584933
0.5858
0.586661
0.587413
0.587987
0.588355
0.588544
0.588616
0.588637
0.588407
0.587083
0.583178
0.57536
0.563331
0.548136
0.531876
0.516985
0.505417
0.498058
0.494498
0.493354
0.493364
0.497021
0.506043
0.51912
0.533436
0.546556
0.55713
0.564795
0.569816
0.572783
0.574346
0.575058
0.575329
0.575408
0.575425
0.575397
0.575377
0.575396
0.575588
0.576242
0.577446
0.578994
0.580598
0.582032
0.583183
0.584034
0.584623
0.585009
0.58525
0.585398
0.585496
0.58557
0.585642
0.585738
0.585889
0.586141
0.586529
0.587056
0.587685
0.588357
0.589015
0.589627
0.590178
0.590669
0.591109
0.591501
0.591841
0.59213
0.59236
0.592534
0.592656
0.592727
0.592762
0.592772
0.592757
0.592722
0.59259
0.592212
0.591272
0.589078
0.584434
0.575706
0.561347
0.540732
0.514935
0.486889
0.460714
0.440369
0.427989
0.422736
0.42117
0.423452
0.434688
0.456115
0.484269
0.513645
0.539576
0.559392
0.572553
0.580075
0.583663
0.584951
0.585197
0.584961
0.584081
0.582669
0.581215
0.58004
0.579229
0.578733
0.578455
0.578315
0.578378
0.578811
0.579586
0.580572
0.581648
0.582739
0.583823
0.584915
0.586048
0.587262
0.58858
0.589967
0.591327
0.592493
0.593327
0.593805
0.593996
0.59403
0.594013
0.593974
0.594029
0.594278
0.594888
0.59594
0.597294
0.598741
0.55271
0.551497
0.552579
0.555947
0.560406
0.564473
0.567195
0.568455
0.568786
0.568367
0.565455
0.560058
0.554246
0.550065
0.548048
0.547475
0.547879
0.550881
0.556232
0.562149
0.567308
0.571226
0.573864
0.575339
0.575945
0.576142
0.575213
0.57104
0.563158
0.553838
0.546165
0.541726
0.540088
0.539744
0.541773
0.547509
0.5551
0.562159
0.567581
0.571353
0.573905
0.575694
0.577094
0.578368
0.579655
0.580934
0.582025
0.582728
0.583026
0.583124
0.582318
0.578382
0.569641
0.557144
0.544056
0.53358
0.527269
0.524616
0.523895
0.525224
0.531044
0.540211
0.549761
0.557658
0.56336
0.567227
0.569889
0.571918
0.57369
0.575413
0.577118
0.578704
0.580045
0.581062
0.581769
0.582253
0.582601
0.582908
0.583257
0.583728
0.584373
0.585178
0.586056
0.586893
0.587595
0.588101
0.588403
0.588544
0.588596
0.588583
0.588088
0.585998
0.580751
0.571318
0.557909
0.542039
0.526047
0.512275
0.50232
0.496578
0.494159
0.493439
0.494473
0.500208
0.511099
0.524978
0.539018
0.551187
0.560563
0.567088
0.571189
0.573511
0.574675
0.575173
0.575344
0.575393
0.575394
0.575366
0.575365
0.575431
0.575811
0.57673
0.57813
0.579744
0.58129
0.582602
0.583612
0.584333
0.584817
0.585129
0.58532
0.585441
0.585525
0.585596
0.585678
0.585798
0.585994
0.586309
0.58677
0.587353
0.588014
0.588686
0.589326
0.589909
0.59043
0.590899
0.591314
0.591679
0.591992
0.592249
0.592448
0.592595
0.59269
0.592742
0.592763
0.592761
0.592742
0.592671
0.592432
0.591791
0.590247
0.586831
0.580086
0.568369
0.550572
0.526984
0.499743
0.472521
0.449465
0.433635
0.425528
0.422776
0.422708
0.429373
0.446054
0.471378
0.500503
0.528204
0.550862
0.567
0.576973
0.582215
0.584439
0.585076
0.585065
0.584556
0.583352
0.581866
0.580537
0.579559
0.578924
0.578559
0.578356
0.578303
0.578542
0.579168
0.580062
0.581103
0.582185
0.583261
0.584338
0.585439
0.586607
0.587876
0.589237
0.590614
0.591867
0.592836
0.593443
0.593717
0.593792
0.593785
0.59375
0.593734
0.593863
0.594279