/*--------------------------------*- C++ -*----------------------------------*\
| =========                 |                                                 |
| \\      /  F ield         | OpenFOAM: The Open Source CFD Toolbox           |
|  \\    /   O peration     | Version:  v2012                                 |
|   \\  /    A nd           | Website:  www.openfoam.com                      |
|    \\/     M anipulation  |                                                 |
\*---------------------------------------------------------------------------*/
FoamFile
{
    version     2.0;
    format      ascii;
    class       volScalarField;
    location    "0";
    object      nut;
}
// * * * * * * * * * * * * * * * * * * * * * * * * * * * * * * * * * * * * * //

dimensions      [0 2 -1 0 0 0 0];


internalField   nonuniform List<scalar> 
97664
(
0.00339713
0.00344026
0.0034726
0.0034949
0.00350834
0.00351477
0.00351748
0.00352321
0.00353955
0.00357149
0.00362011
0.00368319
0.00375384
0.00382057
0.00387204
0.00390262
0.00390832
0.00388555
0.0038336
0.00375547
0.00365645
0.00354863
0.00344914
0.00337471
0.00333831
0.00334765
0.0034043
0.00350326
0.00363419
0.00378181
0.00392471
0.00403763
0.00410563
0.00412742
0.00410367
0.00403249
0.00391305
0.00374639
0.00353329
0.00328332
0.0030152
0.00274903
0.00250288
0.00229192
0.00212903
0.00202355
0.00198054
0.00200019
0.00207796
0.0022055
0.002372
0.00256544
0.00277359
0.00298503
0.00318942
0.00337439
0.0035199
0.00360655
0.00363228
0.00361235
0.00356241
0.00348849
0.00339102
0.00326929
0.00311632
0.00292573
0.0027039
0.00246474
0.00222027
0.00197835
0.00174418
0.00152186
0.00131496
0.00112663
0.000959501
0.000815583
0.000696269
0.000602346
0.000534063
0.000491285
0.000473713
0.000480812
0.000511975
0.000566359
0.000642848
0.000739969
0.000855858
0.000988317
0.00113497
0.00129335
0.00146088
0.00163496
0.00181306
0.00199281
0.0021721
0.00234918
0.00252265
0.00269092
0.00284995
0.0029901
0.00309614
0.00315369
0.00315835
0.00312002
0.00305743
0.00298726
0.00291762
0.00285008
0.00278382
0.00271386
0.00262521
0.00250325
0.00234644
0.00216493
0.00197202
0.0017783
0.00158966
0.00140973
0.00124058
0.00108287
0.000937235
0.000804154
0.000683913
0.000576555
0.000481855
0.000399341
0.000328347
0.000268107
0.000217742
0.000176252
0.000142579
0.000115666
9.44852e-05
7.80552e-05
6.54793e-05
5.59754e-05
4.88936e-05
4.36944e-05
3.99374e-05
3.72714e-05
3.54246e-05
3.41953e-05
3.34437e-05
3.3087e-05
3.3098e-05
3.35083e-05
3.44181e-05
3.60142e-05
3.85963e-05
4.26149e-05
4.87224e-05
5.7835e-05
7.1205e-05
9.04947e-05
0.000117838
0.000155863
0.000207645
0.000276551
0.000365955
0.00047882
0.000617229
0.000781972
0.000972359
0.00118673
0.0014217
0.00167425
0.00194109
0.00221938
0.00250736
0.00280427
0.00310936
0.00341997
0.00372694
0.00400883
0.00423205
0.00436475
0.0044012
0.00437357
0.00432924
0.00429727
0.00428553
0.00429065
0.00428094
0.00419266
0.00398188
0.00365605
0.0032558
0.0028222
0.00238279
0.00195389
0.00154766
0.00117807
0.000857759
0.000595624
0.000395519
0.000253552
0.000159787
0.000102046
6.88561e-05
5.09709e-05
4.1879e-05
3.74982e-05
3.54761e-05
3.45486e-05
3.40994e-05
3.38485e-05
3.36709e-05
3.35191e-05
3.33732e-05
3.32244e-05
3.30706e-05
3.29122e-05
3.27518e-05
3.25937e-05
3.2444e-05
3.23111e-05
3.22079e-05
3.21503e-05
3.21554e-05
3.22425e-05
0.00339692
0.00343941
0.00347114
0.00349297
0.00350614
0.0035125
0.00351564
0.00352255
0.00354059
0.00357437
0.00362459
0.00368866
0.00375922
0.0038245
0.00387379
0.00390191
0.00390488
0.00387928
0.00382491
0.00374497
0.00364528
0.00353866
0.00344238
0.00337277
0.00334223
0.00335774
0.00342007
0.00352348
0.00365705
0.00380485
0.00394448
0.00405129
0.00411258
0.00412802
0.00409777
0.00401975
0.00389363
0.00372023
0.00350109
0.00324752
0.00297901
0.00271547
0.0024746
0.0022713
0.00211796
0.00202332
0.00199163
0.00202221
0.00210975
0.00224533
0.00241775
0.00261485
0.00282437
0.00303507
0.00323656
0.00341488
0.00354867
0.00362124
0.00363535
0.0036079
0.00355245
0.00347316
0.00337
0.00324145
0.00307929
0.00287976
0.00265205
0.00241021
0.00216524
0.00192422
0.00169202
0.00147264
0.0012696
0.00108599
0.000924312
0.000786476
0.000673744
0.000586779
0.000525732
0.000490396
0.000480431
0.000495237
0.000534125
0.000596141
0.000680024
0.000784136
0.00090644
0.0010446
0.00119615
0.00135855
0.00152917
0.0017054
0.00188472
0.00206483
0.00224372
0.00241977
0.00259162
0.00275711
0.00291025
0.00303877
0.00312666
0.00316254
0.00314787
0.00309732
0.00303009
0.00295959
0.00289066
0.00282351
0.00275655
0.00268064
0.00257891
0.00244143
0.00227251
0.00208461
0.00189028
0.00169828
0.00151297
0.00133746
0.00117307
0.0010204
0.000880034
0.000752365
0.00063757
0.000535586
0.000446085
0.000368503
0.000302126
0.000246145
0.000199621
0.000161522
0.000130786
0.000106371
8.72675e-05
7.25271e-05
6.12984e-05
5.2857e-05
4.66031e-05
4.20406e-05
3.87685e-05
3.64714e-05
3.49103e-05
3.39134e-05
3.33707e-05
3.32305e-05
3.35012e-05
3.42588e-05
3.56612e-05
3.79722e-05
4.15948e-05
4.71171e-05
5.53699e-05
6.74936e-05
8.50104e-05
0.000109887
0.000144567
0.000191949
0.000255262
0.000337831
0.000442704
0.000572208
0.000727524
0.000908428
0.00111334
0.00133998
0.00158474
0.00184466
0.00211675
0.00239883
0.00268986
0.00298926
0.00329549
0.00360259
0.00389438
0.00414144
0.00430921
0.00437965
0.00437084
0.00432842
0.00429038
0.00427099
0.00427191
0.00427597
0.00422908
0.00407277
0.00379388
0.00342287
0.0030032
0.00256798
0.00213711
0.00172384
0.00134042
0.000999136
0.000711864
0.000484548
0.000316951
0.000201841
0.000128045
8.38588e-05
5.90922e-05
4.60235e-05
3.94956e-05
3.63931e-05
3.49607e-05
3.42838e-05
3.39343e-05
3.37151e-05
3.3543e-05
3.33863e-05
3.32319e-05
3.30752e-05
3.29165e-05
3.27583e-05
3.26048e-05
3.24618e-05
3.23367e-05
3.22385e-05
3.21794e-05
3.21708e-05
3.22167e-05
3.23053e-05
0.00339666
0.00343851
0.00346965
0.00349103
0.00350394
0.00351026
0.00351391
0.00352205
0.00354181
0.00357741
0.00362918
0.00369413
0.00376445
0.00382818
0.00387528
0.00390093
0.00390116
0.00387278
0.00381608
0.00373444
0.00363428
0.00352908
0.0034362
0.00337155
0.0033469
0.00336852
0.00343638
0.00354401
0.00367992
0.00382747
0.00396337
0.00406389
0.00411855
0.00412768
0.00409089
0.00400603
0.00387327
0.00369318
0.00346828
0.00321156
0.00294323
0.00268278
0.00244761
0.00225231
0.00210879
0.00202511
0.00200471
0.00204606
0.00214308
0.0022863
0.00246422
0.00266451
0.00287499
0.00308453
0.0032825
0.00345307
0.00357428
0.00363302
0.0036365
0.00360222
0.00354137
0.00345655
0.00334763
0.00321167
0.00304006
0.00283218
0.00259942
0.00235552
0.00211043
0.00187057
0.00164058
0.00142438
0.00122544
0.00104677
0.000890755
0.000759186
0.000653199
0.000573333
0.000519643
0.000491863
0.000489602
0.000512183
0.000558823
0.000628444
0.000719636
0.000830583
0.000959079
0.00110267
0.00125881
0.0014249
0.00159825
0.00177627
0.00195647
0.00213662
0.00231485
0.00248964
0.00265955
0.00282132
0.00296655
0.00308076
0.00314856
0.00316305
0.0031316
0.00307215
0.0030025
0.00293234
0.00286399
0.00279702
0.00272778
0.00264277
0.00252621
0.00237418
0.00219556
0.00200365
0.00180967
0.00162027
0.00143841
0.00126746
0.00110793
0.000960381
0.000825316
0.000703052
0.000593659
0.000496965
0.000412539
0.00033974
0.000277818
0.000225908
0.000183022
0.000148108
0.000120113
9.80093e-05
8.08099e-05
6.76053e-05
5.75943e-05
5.01107e-05
4.45998e-05
4.06075e-05
3.77707e-05
3.5809e-05
3.45153e-05
3.37492e-05
3.3432e-05
3.35473e-05
3.41457e-05
3.53568e-05
3.74094e-05
4.06615e-05
4.56412e-05
5.30995e-05
6.40728e-05
7.99512e-05
0.000102542
0.000134113
0.00017738
0.000235427
0.000311499
0.00040869
0.000529521
0.000675517
0.000846894
0.0010425
0.00126006
0.00149701
0.00174968
0.00201533
0.00229147
0.00257663
0.00287023
0.00317136
0.00347639
0.0037738
0.00403935
0.00423899
0.00434581
0.00436296
0.00432821
0.004286
0.00425922
0.00425276
0.00426093
0.00424461
0.00414074
0.00391425
0.0035806
0.00318088
0.00275357
0.00232331
0.00190497
0.0015106
0.00115239
0.000842221
0.000587511
0.000393165
0.00025443
0.000161918
0.000104227
7.05625e-05
5.21068e-05
4.25433e-05
3.7838e-05
3.56193e-05
3.45803e-05
3.40683e-05
3.37807e-05
3.35792e-05
3.34083e-05
3.3247e-05
3.30874e-05
3.29282e-05
3.27713e-05
3.26208e-05
3.24818e-05
3.23607e-05
3.22646e-05
3.22008e-05
3.21783e-05
3.21996e-05
3.22529e-05
3.23055e-05
0.00339635
0.00343757
0.00346812
0.00348909
0.00350174
0.00350807
0.0035123
0.00352171
0.0035432
0.00358058
0.00363385
0.00369959
0.00376953
0.00383161
0.0038765
0.00389968
0.00389718
0.00386605
0.00380712
0.0037239
0.00362346
0.00351992
0.00343062
0.00337103
0.00335231
0.00337996
0.00345318
0.00356481
0.00370274
0.00384962
0.00398134
0.00407546
0.00412358
0.00412641
0.00408304
0.00399136
0.00385199
0.00366525
0.00343494
0.00317567
0.00290793
0.00265102
0.00242196
0.00223499
0.00210152
0.00202891
0.00201976
0.00207168
0.00217787
0.00232835
0.00251133
0.00271436
0.00292535
0.00313333
0.00332706
0.00348875
0.00359672
0.0036421
0.00363595
0.00359537
0.00352914
0.00343868
0.00332379
0.00317981
0.0029987
0.0027832
0.0025462
0.00230076
0.00205588
0.00181745
0.00158992
0.00137714
0.00118254
0.00100903
0.000858885
0.000733766
0.000634682
0.000562053
0.000515842
0.000495728
0.000501255
0.000531664
0.000586063
0.000663245
0.000761635
0.000879235
0.00101368
0.00116242
0.00132283
0.00149225
0.00166799
0.00184744
0.00202819
0.0022081
0.00238541
0.0025587
0.00272617
0.0028829
0.00301786
0.00311518
0.00316172
0.0031561
0.00311099
0.00304565
0.00297507
0.00290548
0.00283755
0.0027702
0.00269623
0.00259925
0.00246728
0.00230247
0.00211663
0.00192266
0.00173001
0.00154349
0.00136602
0.00119975
0.00104516
0.000902793
0.000773063
0.000656186
0.000552134
0.000460627
0.000381136
0.000312969
0.000255331
0.000207299
0.000167846
0.000135917
0.000110472
9.0499e-05
7.504e-05
6.32276e-05
5.43188e-05
4.76979e-05
4.28543e-05
3.93741e-05
3.69312e-05
3.52796e-05
3.42448e-05
3.37189e-05
3.36581e-05
3.40867e-05
3.51056e-05
3.69098e-05
3.98142e-05
4.42909e-05
5.10164e-05
6.09301e-05
7.52987e-05
9.57795e-05
0.000124468
0.000163904
0.000217011
0.000286939
0.000376785
0.000489217
0.000626057
0.000787933
0.000974129
0.00118273
0.00141106
0.00165646
0.00191539
0.00218546
0.00246479
0.00275255
0.00304818
0.00334958
0.00364906
0.00392779
0.00415475
0.004298
0.00434692
0.00432692
0.00428368
0.0042497
0.00423556
0.00424064
0.00424282
0.00418451
0.00401356
0.00372488
0.00335241
0.00293759
0.00251079
0.00208995
0.00168739
0.0013148
0.000983876
0.000704756
0.000483214
0.000318802
0.000205067
0.000131265
8.6414e-05
6.08434e-05
4.70913e-05
4.0076e-05
3.66661e-05
3.50574e-05
3.42847e-05
3.38815e-05
3.36319e-05
3.34402e-05
3.32692e-05
3.31054e-05
3.29449e-05
3.27884e-05
3.26394e-05
3.25024e-05
3.23829e-05
3.22868e-05
3.22195e-05
3.21856e-05
3.21881e-05
3.22207e-05
3.22582e-05
3.22628e-05
0.003396
0.00343658
0.00346656
0.00348714
0.00349956
0.00350593
0.0035108
0.00352154
0.00354478
0.0035839
0.0036386
0.00370502
0.00377443
0.00383479
0.00387746
0.00389815
0.00389292
0.00385912
0.00379804
0.00371336
0.00361285
0.0035112
0.00342565
0.00337123
0.00335845
0.00339206
0.00347044
0.00358583
0.00372547
0.00387123
0.00399836
0.00408599
0.00412767
0.0041242
0.00407421
0.00397575
0.00382978
0.0036365
0.00340115
0.00313984
0.00287319
0.00262026
0.0023977
0.00221939
0.00209619
0.00203473
0.00203676
0.00209902
0.00221404
0.00237137
0.00255897
0.0027643
0.00297538
0.00318135
0.00337
0.00352171
0.00361601
0.00364874
0.0036339
0.00358739
0.00351573
0.00341955
0.00329834
0.00314578
0.00295536
0.00273303
0.00249252
0.00224603
0.00200168
0.00176492
0.00154009
0.00133099
0.00114096
0.00097283
0.000828758
0.00071027
0.000618245
0.000552985
0.000514375
0.000502028
0.000515364
0.00055369
0.000615841
0.000700515
0.000805964
0.000930007
0.00107014
0.00122372
0.00138807
0.00156047
0.00173824
0.00191879
0.00209977
0.00227916
0.00245531
0.00262683
0.00279111
0.00294104
0.00306311
0.00314135
0.0031664
0.00314283
0.00308734
0.00301859
0.00294799
0.00287896
0.0028112
0.00274229
0.0026606
0.00254953
0.0024027
0.00222736
0.00203664
0.00184225
0.00165179
0.00146877
0.00129583
0.00113434
0.000984781
0.000847632
0.000723242
0.000611719
0.000512932
0.000426495
0.000351798
0.000288108
0.000234575
0.00019022
0.000153998
0.000124862
0.000101782
8.37666e-05
6.98926e-05
5.93415e-05
5.1429e-05
4.55849e-05
4.13414e-05
3.83235e-05
3.62417e-05
3.48843e-05
3.41107e-05
3.38477e-05
3.40914e-05
3.49136e-05
3.6476e-05
3.90526e-05
4.30622e-05
4.91124e-05
5.8052e-05
7.10326e-05
8.95701e-05
0.000115596
0.000151475
0.000199969
0.00026411
0.000346967
0.000451311
0.00057921
0.00073167
0.000908409
0.0011079
0.00132771
0.00156501
0.0018172
0.00208099
0.00235448
0.00263644
0.00292638
0.00322314
0.00352192
0.00380895
0.00405781
0.00423516
0.00431958
0.00432184
0.0042829
0.00424324
0.00422088
0.00421909
0.00422868
0.00420548
0.00408871
0.00385161
0.00351429
0.00311786
0.00269802
0.00227723
0.00186919
0.0014852
0.00113676
0.000834594
0.000586802
0.000396146
0.000258837
0.000166346
0.000107839
7.31225e-05
5.37323e-05
4.34746e-05
3.83123e-05
3.58223e-05
3.46339e-05
3.40423e-05
3.37106e-05
3.34848e-05
3.3299e-05
3.31287e-05
3.29655e-05
3.28085e-05
3.26597e-05
3.25233e-05
3.24039e-05
3.23065e-05
3.22354e-05
3.21938e-05
3.21821e-05
3.21979e-05
3.22251e-05
3.22329e-05
3.21897e-05
0.00339561
0.00343556
0.00346498
0.00348518
0.00349739
0.00350384
0.00350942
0.00352153
0.00354652
0.00358734
0.00364342
0.0037104
0.00377914
0.00383772
0.00387816
0.00389635
0.0038884
0.00385199
0.00378885
0.00370285
0.00360248
0.00350292
0.0034213
0.00337214
0.0033653
0.00340477
0.00348814
0.00360703
0.00374807
0.00389222
0.00401441
0.00409551
0.00413083
0.00412105
0.00406441
0.00395923
0.00380665
0.00360693
0.00336688
0.00310415
0.00283909
0.00259057
0.00237489
0.00220555
0.00209282
0.00204256
0.00205565
0.00212802
0.00225153
0.0024153
0.00260707
0.00281425
0.00302499
0.00322847
0.00341111
0.00355177
0.00363225
0.00365315
0.00363048
0.00357828
0.00350112
0.00339912
0.00327116
0.00310956
0.00291022
0.00268187
0.00243853
0.00219141
0.00194787
0.00171304
0.00149116
0.00128598
0.00110077
0.000938235
0.000800433
0.000688751
0.000603935
0.000546177
0.00051528
0.000510792
0.000532055
0.000578267
0.000648138
0.000740212
0.000852556
0.00098281
0.00112835
0.00128645
0.0014544
0.00162944
0.00180888
0.0019902
0.0021711
0.00234969
0.00252446
0.00269381
0.00285381
0.00299478
0.00310135
0.00315894
0.00316328
0.00312461
0.00306185
0.00299148
0.00292128
0.00285263
0.00278471
0.00271219
0.00261978
0.00249359
0.00233336
0.00214992
0.00195646
0.00176315
0.00157561
0.00139618
0.00122787
0.00107125
0.000926775
0.000794883
0.000675824
0.000569606
0.000475992
0.000394496
0.000324448
0.00026507
0.000215452
0.000174575
0.000141389
0.000114856
9.3962e-05
7.77398e-05
6.53059e-05
5.58987e-05
4.8886e-05
4.37422e-05
4.00404e-05
3.74439e-05
3.56996e-05
3.4631e-05
3.4133e-05
3.41716e-05
3.47884e-05
3.6112e-05
3.83767e-05
4.19517e-05
4.73793e-05
5.54246e-05
6.71316e-05
8.38838e-05
0.000107456
0.000140045
0.000184244
0.000242957
0.000319197
0.000415791
0.000535011
0.000678195
0.00084548
0.00103575
0.00124686
0.00147612
0.00172074
0.00197828
0.00224583
0.00252204
0.00280623
0.00309777
0.00339385
0.00368501
0.00395012
0.00415751
0.00427863
0.00430992
0.0042821
0.00423933
0.00420912
0.00419926
0.00420741
0.00420691
0.00413862
0.00395674
0.00366269
0.00329163
0.0028832
0.00246528
0.00205435
0.00166191
0.00129899
0.000976532
0.000703921
0.000486742
0.000324498
0.000210879
0.000136126
8.99929e-05
6.32092e-05
4.85132e-05
4.08485e-05
3.70341e-05
3.51964e-05
3.43009e-05
3.3833e-05
3.35486e-05
3.33386e-05
3.31577e-05
3.29899e-05
3.2831e-05
3.26815e-05
3.25446e-05
3.24242e-05
3.23246e-05
3.22495e-05
3.22014e-05
3.21798e-05
3.21822e-05
3.21993e-05
3.22085e-05
3.21807e-05
3.20931e-05
0.00339517
0.00343449
0.00346337
0.00348323
0.00349524
0.00350182
0.00350816
0.0035217
0.00354843
0.00359092
0.00364829
0.00371573
0.00378366
0.0038404
0.00387859
0.00389428
0.00388363
0.00384468
0.00377956
0.00369238
0.00359236
0.00349512
0.00341758
0.00337376
0.00337285
0.00341809
0.00350624
0.00362838
0.00377046
0.00391255
0.00402947
0.00410405
0.00413308
0.00411697
0.00405364
0.0039418
0.00378261
0.00357665
0.00333247
0.00306869
0.00280569
0.002562
0.00235358
0.0021935
0.0020914
0.00205237
0.0020764
0.00215861
0.00229024
0.00246003
0.00265553
0.00286412
0.00307412
0.00327453
0.00345012
0.00357883
0.0036456
0.00365559
0.00362581
0.00356802
0.00348524
0.00337737
0.00324211
0.00307118
0.00286345
0.00262991
0.00238434
0.00213697
0.00189452
0.00166188
0.00144319
0.00124217
0.00106201
0.000905303
0.000773967
0.000669263
0.000591802
0.000541673
0.000518598
0.000522051
0.000551287
0.000605388
0.00068293
0.000782287
0.000901334
0.00103754
0.00118819
0.0013505
0.0015217
0.00169902
0.00187979
0.00206153
0.00224207
0.00241962
0.00259276
0.00275935
0.00291356
0.00304311
0.00313178
0.00316802
0.00315337
0.00310278
0.00303546
0.00296463
0.00289491
0.00282642
0.00275749
0.00267862
0.00257306
0.00243185
0.00226027
0.0020711
0.00187662
0.00168517
0.00150073
0.00132575
0.00116215
0.00101047
0.00087114
0.000744525
0.000630772
0.000529793
0.000441245
0.000364554
0.000299006
0.000243767
0.000197869
0.000160272
0.000129931
0.000105819
8.69382e-05
7.23529e-05
6.12263e-05
5.28561e-05
4.66564e-05
4.21452e-05
3.89354e-05
3.67284e-05
3.53084e-05
3.4535e-05
3.4342e-05
3.47397e-05
3.5823e-05
3.77879e-05
4.0956e-05
4.58091e-05
5.30337e-05
6.35742e-05
7.86897e-05
0.000100008
0.00012956
0.000169775
0.000223416
0.000293415
0.000382622
0.000493461
0.00062756
0.000785449
0.000966424
0.00116868
0.00138971
0.00162679
0.00187728
0.00213898
0.00240947
0.00268795
0.00297397
0.00326601
0.00355798
0.00383402
0.00406622
0.00422283
0.004288
0.00427886
0.00423767
0.00420067
0.00418201
0.00418402
0.00419383
0.00416421
0.00403734
0.00379335
0.00345566
0.00306424
0.00265259
0.00224133
0.0018432
0.00146886
0.00112905
0.000833882
0.000590894
0.000402761
0.000266022
0.000172638
0.000112653
7.64356e-05
5.58137e-05
4.46689e-05
3.89283e-05
3.60941e-05
3.47177e-05
3.40274e-05
3.36444e-05
3.33924e-05
3.3194e-05
3.30185e-05
3.2856e-05
3.27046e-05
3.25663e-05
3.24443e-05
3.2342e-05
3.22628e-05
3.22089e-05
3.21799e-05
3.21725e-05
3.21804e-05
3.21876e-05
3.21701e-05
3.21054e-05
3.19786e-05
0.00339468
0.00343339
0.00346175
0.00348127
0.0034931
0.00349986
0.00350704
0.00352203
0.0035505
0.00359463
0.0036532
0.00372098
0.00378798
0.00384282
0.00387878
0.00389195
0.0038786
0.0038372
0.00377019
0.00368198
0.00358253
0.00348781
0.0034145
0.00337609
0.00338109
0.00343197
0.00352472
0.00364982
0.0037926
0.00393216
0.00404353
0.00411161
0.00413442
0.00411194
0.00404191
0.00392347
0.0037577
0.00354571
0.00329786
0.00303354
0.00277307
0.00253464
0.00233382
0.00218327
0.00209195
0.00206414
0.00209895
0.00219072
0.0023301
0.00250549
0.00270426
0.00291383
0.00312266
0.00331936
0.00348682
0.00360282
0.00365625
0.00365628
0.00361993
0.00355662
0.0034681
0.00335418
0.00321105
0.00303073
0.00281528
0.00257731
0.00233005
0.00208278
0.00184169
0.00161148
0.00139625
0.00119964
0.00102477
0.000874092
0.000749416
0.000651855
0.000581892
0.000539514
0.000524362
0.000535828
0.000573072
0.000634964
0.000720189
0.000826684
0.000952211
0.0010941
0.00124955
0.00141573
0.00158983
0.00176908
0.00195084
0.00213269
0.00231258
0.00248886
0.00266004
0.002823
0.00296951
0.00308502
0.0031539
0.00316906
0.00313791
0.00307856
0.00300879
0.00293811
0.00286872
0.00280018
0.00272864
0.00264042
0.00252021
0.00236506
0.00218447
0.00199179
0.00179791
0.00160906
0.00142792
0.00125749
0.0010987
0.000952023
0.000817872
0.00069653
0.000588044
0.000492222
0.00040862
0.000336597
0.00027539
0.000224106
0.000181732
0.000147222
0.000119541
9.76714e-05
8.06389e-05
6.75439e-05
5.76057e-05
5.0175e-05
4.4711e-05
4.07737e-05
3.80153e-05
3.61764e-05
3.50785e-05
3.46205e-05
3.47794e-05
3.56162e-05
3.72888e-05
4.00733e-05
4.43944e-05
5.08658e-05
6.03387e-05
7.39563e-05
9.32071e-05
0.000119964
0.000156495
0.000205412
0.00026955
0.000351747
0.000454534
0.000579784
0.000728381
0.000900025
0.00109326
0.00130573
0.00153499
0.00177844
0.00203363
0.00229855
0.00257164
0.00285206
0.00313924
0.00342957
0.00371185
0.0039631
0.00415176
0.00425323
0.00427018
0.00423692
0.00419524
0.00416836
0.00416188
0.00417221
0.00416842
0.00409199
0.00390243
0.0036061
0.0032386
0.00283746
0.00242865
0.00202742
0.00164459
0.00129054
0.00097549
0.000708291
0.000494208
0.000332909
0.000218618
0.000142365
9.44735e-05
6.61404e-05
5.02742e-05
4.18215e-05
3.75097e-05
3.53872e-05
3.43396e-05
3.37935e-05
3.34697e-05
3.32409e-05
3.30524e-05
3.28839e-05
3.27293e-05
3.25886e-05
3.24642e-05
3.2359e-05
3.22757e-05
3.22163e-05
3.21806e-05
3.21658e-05
3.21662e-05
3.21703e-05
3.21591e-05
3.21115e-05
3.20113e-05
3.18496e-05
0.00339415
0.00343225
0.0034601
0.00347931
0.00349099
0.00349798
0.00350605
0.00352252
0.00355274
0.00359844
0.00365815
0.00372615
0.00379209
0.003845
0.0038787
0.00388936
0.00387334
0.00382956
0.00376075
0.00367167
0.003573
0.003481
0.00341206
0.00337912
0.00339
0.0034464
0.00354354
0.00367133
0.00381443
0.00395099
0.00405659
0.00411823
0.00413485
0.00410598
0.00402923
0.00390424
0.00373192
0.00351417
0.00326313
0.00299878
0.00274129
0.00250852
0.00231566
0.00217488
0.00209448
0.00207785
0.00212326
0.00222428
0.00237103
0.00255158
0.00275316
0.00296329
0.00317052
0.00336275
0.00352098
0.00362376
0.00366441
0.00365541
0.0036129
0.00354404
0.00344965
0.00332944
0.00317791
0.00298831
0.00276589
0.00252423
0.00227576
0.0020289
0.00178943
0.00156191
0.00135039
0.00115845
0.000989088
0.000844663
0.000726835
0.000636579
0.000574252
0.000539741
0.000532603
0.000552143
0.00059741
0.000667145
0.000759866
0.00087333
0.00100509
0.00115238
0.0013123
0.00148201
0.00165866
0.00183949
0.0020219
0.00220356
0.00238254
0.0025573
0.00272607
0.00288415
0.00302067
0.00311964
0.00316759
0.0031629
0.00311826
0.00305303
0.0029822
0.00291187
0.00284266
0.00277348
0.00269693
0.00259669
0.00246145
0.00229416
0.00210694
0.00191257
0.00172013
0.00153412
0.00135722
0.00119144
0.00103751
0.000895893
0.000766949
0.000650866
0.000547592
0.000456831
0.000378047
0.000310548
0.000253516
0.000205995
0.000166951
0.00013534
0.000110137
9.0339e-05
7.49976e-05
6.32587e-05
5.44009e-05
4.78219e-05
4.30254e-05
3.96123e-05
3.72751e-05
3.57935e-05
3.5029e-05
3.49228e-05
3.5501e-05
3.68835e-05
3.93027e-05
4.31291e-05
4.8908e-05
5.74042e-05
6.96528e-05
8.70114e-05
0.000111203
0.000144334
0.000188866
0.000247521
0.000323093
0.000418183
0.000534857
0.000674315
0.000836633
0.00102069
0.00122465
0.00144599
0.00168238
0.00193095
0.00218981
0.00245725
0.0027322
0.00301416
0.00330115
0.00358585
0.00385051
0.00406637
0.00420392
0.00425272
0.00423488
0.00419258
0.004158
0.00414263
0.00414747
0.00415674
0.0041211
0.00398682
0.00373896
0.00340308
0.00301793
0.00261483
0.00221304
0.00182448
0.00145918
0.00112722
0.000838082
0.000598903
0.000412304
0.000275254
0.000180401
0.000118501
8.04367e-05
5.83287e-05
4.61247e-05
3.97e-05
3.64487e-05
3.48418e-05
3.40302e-05
3.35865e-05
3.33051e-05
3.30942e-05
3.29157e-05
3.2756e-05
3.26119e-05
3.24845e-05
3.23759e-05
3.22883e-05
3.22237e-05
3.21819e-05
3.21609e-05
3.21553e-05
3.21564e-05
3.21485e-05
3.21133e-05
3.20335e-05
3.1899e-05
3.17088e-05
0.00339358
0.00343109
0.00345843
0.00347735
0.0034889
0.00349618
0.0035052
0.00352318
0.00355512
0.00360237
0.00366312
0.00373122
0.00379598
0.00384693
0.00387838
0.0038865
0.00386785
0.00382178
0.00375127
0.00366147
0.0035638
0.00347471
0.00341027
0.00338285
0.00339956
0.00346134
0.00356266
0.00369285
0.00383589
0.003969
0.00406865
0.00412391
0.00413437
0.00409907
0.00401561
0.00388412
0.0037053
0.0034821
0.00322836
0.00296448
0.00271043
0.00248371
0.00229915
0.00216838
0.00209896
0.00209347
0.00214927
0.00225922
0.00241294
0.00259822
0.00280217
0.00301242
0.00321759
0.00340449
0.00355243
0.0036417
0.00367031
0.00365313
0.00360472
0.00353024
0.00342992
0.00330303
0.00314263
0.00294408
0.00271548
0.0024708
0.00222154
0.0019754
0.0017378
0.00151323
0.00130568
0.00111865
0.000955039
0.000817075
0.000706279
0.000623484
0.000568926
0.000542391
0.000543351
0.000571009
0.000624296
0.000701822
0.000801795
0.000922142
0.00105988
0.00121226
0.00137633
0.00154922
0.00172807
0.00191012
0.00209285
0.00227403
0.00245185
0.00262484
0.00279051
0.00294204
0.00306606
0.00314633
0.00317308
0.00315062
0.00309563
0.0030269
0.00295586
0.00288587
0.0028166
0.0027456
0.00266116
0.002547
0.00239741
0.00222019
0.00202862
0.00183429
0.0016441
0.00146115
0.00128865
0.00112759
0.000978592
0.000842081
0.000718354
0.000607497
0.000509363
0.000423552
0.000349454
0.000286327
0.000233291
0.000189343
0.000153439
0.000124545
0.000101643
8.37513e-05
6.9953e-05
5.94494e-05
5.15731e-05
4.57679e-05
4.15802e-05
3.86515e-05
3.67159e-05
3.55936e-05
3.51886e-05
3.54896e-05
3.65788e-05
3.86452e-05
4.20081e-05
4.71487e-05
5.4751e-05
6.57493e-05
8.13786e-05
0.000103219
0.000133222
0.000173696
0.000227237
0.000296576
0.000384341
0.000492746
0.000623256
0.000776285
0.000951281
0.00114657
0.00136004
0.0015888
0.00183071
0.00208335
0.00234503
0.00261451
0.00289115
0.00317403
0.00345801
0.003731
0.0039683
0.00413929
0.00422341
0.00422869
0.00419163
0.0041513
0.0041272
0.00412346
0.00413512
0.00412799
0.00404474
0.00385035
0.00355409
0.00319152
0.00279829
0.00239865
0.00200691
0.00163325
0.00128743
0.000979038
0.000716413
0.000504611
0.000343518
0.000227979
0.000149749
9.97641e-05
6.96222e-05
5.2394e-05
4.3001e-05
3.80977e-05
3.56318e-05
3.43985e-05
3.37565e-05
3.3386e-05
3.31358e-05
3.29398e-05
3.27713e-05
3.26366e-05
3.25053e-05
3.23929e-05
3.23011e-05
3.22312e-05
3.21838e-05
3.21571e-05
3.21462e-05
3.21443e-05
3.21384e-05
3.21123e-05
3.20499e-05
3.19397e-05
3.17774e-05
3.15628e-05
0.00339296
0.00342989
0.00345676
0.0034754
0.00348684
0.00349446
0.0035045
0.00352401
0.00355766
0.0036064
0.00366811
0.00373617
0.00379966
0.00384861
0.00387779
0.00388339
0.00386213
0.00381386
0.00374174
0.0036514
0.00355495
0.00346896
0.00340914
0.00338728
0.00340976
0.00347675
0.00358205
0.00371435
0.0038569
0.00398616
0.00407972
0.00412868
0.00413298
0.00409123
0.00400107
0.00386312
0.00367787
0.00344958
0.00319364
0.00293072
0.00268055
0.00246027
0.00228431
0.00216376
0.00210541
0.00211096
0.00217693
0.00229547
0.00245576
0.00264532
0.0028512
0.00306114
0.00326373
0.00344433
0.00358103
0.00365677
0.00367417
0.00364954
0.00359539
0.00351519
0.00340887
0.00327482
0.00310524
0.00289823
0.00266423
0.00241712
0.00216748
0.00192233
0.00168688
0.00146551
0.00126219
0.00108032
0.000922685
0.000791386
0.000687801
0.000612619
0.000565955
0.000547498
0.000556625
0.000592433
0.000653724
0.000738958
0.00084616
0.000973034
0.00111646
0.00127362
0.00144151
0.00161722
0.00179791
0.00198085
0.00216358
0.00234401
0.00252044
0.00269128
0.00285284
0.00299578
0.00310475
0.00316476
0.00317101
0.0031335
0.00307117
0.00300067
0.0029298
0.00285996
0.00279031
0.0027155
0.00262034
0.00249139
0.00232895
0.00214422
0.00195047
0.00175716
0.00156909
0.00139021
0.00122223
0.00106596
0.000921944
0.00079057
0.000672051
0.000566378
0.000473299
0.000392319
0.00032277
0.000263854
0.000214628
0.000174061
0.000141113
0.000114756
9.39851e-05
7.78406e-05
6.54501e-05
5.60726e-05
4.90893e-05
4.39892e-05
4.03608e-05
3.78878e-05
3.63462e-05
3.55994e-05
3.55975e-05
3.63834e-05
3.81037e-05
4.10282e-05
4.55778e-05
5.23607e-05
6.22176e-05
7.62684e-05
9.59583e-05
0.000123089
0.000159817
0.000208605
0.000272099
0.000352922
0.000453391
0.000575178
0.000719158
0.000885065
0.00107174
0.00127686
0.00149814
0.00173296
0.00197931
0.00223513
0.00249905
0.00277026
0.0030481
0.00333008
0.00360756
0.00386117
0.00406019
0.00418042
0.00421536
0.0041908
0.00414802
0.00411559
0.00410264
0.00410939
0.00411764
0.0040768
0.00393699
0.00368771
0.00335525
0.0029771
0.00258278
0.00219034
0.00181104
0.0014543
0.00112959
0.00084581
0.000609747
0.000424055
0.000286164
0.000189423
0.000125271
8.50947e-05
6.1292e-05
4.78722e-05
4.06343e-05
3.68899e-05
3.50053e-05
3.40463e-05
3.35285e-05
3.32124e-05
3.29874e-05
3.28062e-05
3.26512e-05
3.25142e-05
3.23975e-05
3.23012e-05
3.22391e-05
3.2186e-05
3.21536e-05
3.21381e-05
3.21331e-05
3.21284e-05
3.21095e-05
3.20611e-05
3.19707e-05
3.1832e-05
3.16467e-05
3.14099e-05
0.0033923
0.00342867
0.00345506
0.00347344
0.00348481
0.00349283
0.00350393
0.00352501
0.00356033
0.00361052
0.0036731
0.003741
0.00380311
0.00385005
0.00387696
0.00388003
0.0038562
0.00380582
0.0037322
0.00364149
0.00354646
0.00346375
0.00340866
0.00339238
0.00342058
0.00349262
0.00360167
0.00373578
0.00387742
0.00400242
0.00408982
0.00413255
0.00413069
0.00408244
0.00398563
0.00384124
0.00364968
0.00341668
0.00315904
0.00289757
0.00265171
0.00243825
0.0022712
0.00216104
0.0021138
0.00213028
0.00220616
0.00233295
0.00249939
0.00269278
0.00290015
0.00310936
0.00330879
0.00348207
0.0036067
0.00366912
0.00367622
0.00364473
0.00358489
0.00349884
0.00338644
0.00324469
0.0030658
0.00285095
0.00261231
0.00236332
0.00211363
0.00186976
0.00163671
0.00141882
0.00121998
0.00104351
0.000892085
0.000767655
0.000671453
0.00060403
0.00056538
0.000555093
0.000572445
0.000616417
0.000685673
0.000778508
0.000892757
0.00102591
0.00117474
0.00133634
0.0015077
0.00168589
0.00186807
0.00205156
0.002234
0.0024134
0.00258819
0.00275636
0.00291242
0.00304441
0.00313596
0.00317495
0.00316233
0.00311281
0.00304577
0.00297459
0.00290399
0.00283408
0.00276322
0.00268198
0.00257384
0.00243028
0.00225701
0.00206699
0.00187239
0.00168055
0.00149596
0.00132133
0.00115796
0.00100654
0.000867564
0.000741347
0.000628016
0.000527464
0.000439338
0.000363062
0.000297917
0.000243041
0.000197437
0.000160066
0.000129891
0.000105897
8.70922e-05
7.25465e-05
6.14408e-05
5.30895e-05
4.69206e-05
4.2467e-05
3.9359e-05
3.73245e-05
3.6183e-05
3.58439e-05
3.63095e-05
3.76838e-05
4.01885e-05
4.4187e-05
5.02169e-05
5.90309e-05
7.16418e-05
8.93676e-05
0.000113866
0.000147144
0.000191527
0.000249558
0.000323828
0.000416709
0.000530135
0.00066522
0.000822182
0.000999931
0.00119679
0.00141026
0.00163803
0.00187777
0.00212765
0.00238597
0.00265173
0.00292435
0.00320246
0.00348062
0.00374448