/*--------------------------------*- C++ -*----------------------------------*\
| =========                 |                                                 |
| \\      /  F ield         | OpenFOAM: The Open Source CFD Toolbox           |
|  \\    /   O peration     | Version:  v2012                                 |
|   \\  /    A nd           | Website:  www.openfoam.com                      |
|    \\/     M anipulation  |                                                 |
\*---------------------------------------------------------------------------*/
FoamFile
{
    version     2.0;
    format      ascii;
    class       volScalarField;
    location    "0";
    object      omega;
}
// * * * * * * * * * * * * * * * * * * * * * * * * * * * * * * * * * * * * * //

dimensions      [0 0 -1 0 0 0 0];


internalField   nonuniform List<scalar> 
97664
(
6979.33
7054.59
7130.86
7210.26
7292.72
7375.14
7455.89
7537.51
7624.63
7719.97
7823.33
7933.45
8045.61
8151.15
8245.61
8333.15
8418.32
8501.47
8583.29
8662.75
8736.12
8806.74
8884.13
8976.93
9090.39
9227.05
9386.8
9566.75
9762.13
9963.81
10152.6
10302.7
10409.9
10493.3
10567.7
10634.7
10691.8
10731.8
10740.4
10719.5
10688
10665.8
10665.2
10696.8
10765.6
10876
11030.7
11230.4
11473.1
11755.4
12072.2
12417.4
12783.6
13162.8
13544.6
13905.6
14193.3
14359.9
14415.5
14420.4
14426.4
14448.7
14481.8
14513.2
14504.5
14419.1
14266.4
14083.2
13898.8
13727
13571.9
13434.7
13315.8
13216.5
13138
13082.4
13052.2
13050.6
13080.4
13144.2
13243.3
13382.2
13562.3
13785.7
14054.3
14369.4
14731.8
15141.6
15598.5
16101.5
16648.9
17238.2
17866.4
18530.2
19225.9
19950.3
20700.9
21472.5
22243.1
22953.6
23511.2
23832.2
23900.4
23788.8
23618
23487
23436.9
23468.6
23569.4
23695.2
23730.1
23561.8
23175.1
22640.7
22049.6
21468.7
20942.8
20475.9
20059.3
19690.7
19365.1
19078.7
18829
18611.9
18426.3
18270
18140.9
18036.7
17954.3
17889.7
17839.8
17802.2
17775.9
17760.1
17753.9
17756.6
17767.1
17784.8
17808.7
17838.3
17873.2
17913
17957.5
18006.8
18060.9
18120
18184.8
18256.2
18335.9
18426.7
18532.7
18659.9
18816.1
19011.9
19261.2
19581.7
19995
20527.4
21209.5
22075.5
23162.3
24507.6
26147.4
28104.5
30415.8
33087.8
36121.2
39504.3
43215
47222.5
51486.1
55931.9
60390
64513.2
67784.9
69733.4
70289.7
69938
69372.7
69025.6
69026.2
69353.5
69582.7
68817.5
66432.1
62553.8
57813
52857.5
48119.4
43824.1
40090.3
36948.3
34398.1
32438.5
31007.9
30020.2
29380
28996.1
28790.3
28701.5
28686.7
28717.1
28775.7
28852.6
28942.1
29041.2
29148.1
29261.7
29381.2
29505.2
29632.4
29760.8
29888.4
30013
30132.3
30244.4
30347.6
30441.2
30524.7
30597
6978.69
7054.04
7130.55
7210.26
7292.82
7375.04
7455.61
7537.49
7625.21
7721.2
7825.02
7935.28
8046.81
8150.91
8244.13
8331.18
8416.09
8499.05
8580.83
8659.94
8732.96
8804.14
8883.15
8978.22
9094.25
9233.46
9395.46
9576.99
9773.02
9973.52
10157.5
10300.8
10403.3
10485
10558.6
10624.6
10680.2
10716.8
10721.1
10698.2
10667.8
10649.3
10654.3
10692.5
10768.6
10886.9
11049.8
11257.2
11507.1
11795.6
12117.3
12466.1
12834.2
13213.3
13591.9
13940.5
14202.9
14341
14379.7
14382.3
14392.5
14418.4
14452.6
14478.9
14454.3
14351.2
14189
14004.9
13824
13657.3
13507.6
13375.7
13262.6
13169.3
13097.5
13049.4
13027.8
13035.7
13076
13151.4
13262.9
13415.2
13609.5
13848
14132.1
14463.1
14841.5
15267
15739.2
16256.7
16817.5
17419
18057.9
18730.7
19434
20164.7
20920
21690.8
22442.5
23100.1
23567.5
23782.2
23764.8
23615.3
23452.8
23353.6
23338.2
23399.5
23518.9
23623.2
23583.7
23322.3
22866.3
22302.3
21714.6
21156.8
20661.1
20220.5
19828.5
19481.9
19176.1
18907.8
18674.3
18472.7
18301.3
18158.2
18041.1
17947.4
17873.7
17816.2
17772
17739.7
17718.2
17707
17705
17711.5
17725.4
17746.1
17772.9
17805.1
17842.4
17884.5
17931.5
17983.3
18040.2
18102.6
18171.4
18248
18334.9
18435.6
18555.5
18701.7
18883.7
19114.2
19409.1
19788.3
20276.1
20900.6
21694.1
22691.3
23928.2
25440
27257.5
29398.9
31892.3
34736.2
37923.1
41434.8
45244.4
49317.7
53600.3
57971.8
62165.9
65729.6
68150
69174.9
69081.1
68531.8
68078.8
67939.8
68158.4
68523.1
68294.8
66655.2
63426.5
59076.7
54275.9
49539.9
45159.1
41273.3
37948.5
35224.6
33059.9
31434.9
30278
29501.3
29014.8
28736.9
28600.9
28556.7
28570
28618.8
28690.2
28776.5
28873.4
28978.4
29090
29207.1
29328.4
29452.5
29577.4
29701.1
29821.2
29935.5
30041.7
30138.4
30225
30302.6
30374.1
30444.8
6978.06
7053.52
7130.27
7210.28
7292.91
7374.9
7455.34
7537.53
7625.85
7722.45
7826.74
7937.06
8047.88
8150.51
8242.59
8329.19
8413.86
8496.64
8578.39
8657.12
8729.87
8801.73
8882.42
8979.79
9098.39
9240.11
9404.25
9587.28
9783.77
9982.72
10161.5
10298.1
10396.4
10476.7
10549.6
10614.4
10668.4
10701.3
10701.6
10677.4
10648.3
10633.8
10644.6
10689.4
10773
10899.3
11070.1
11285.3
11542.1
11836.5
12162.9
12514.9
12884.5
13263
13637.1
13970.4
14205.8
14317.2
14342.7
14345.4
14359.8
14388.6
14423.3
14442
14399.9
14280.7
14111.5
13927.8
13751.1
13589.4
13445.1
13318.7
13211.3
13124.3
13059.4
13019
13006.3
13024.1
13075.3
13162.4
13286.7
13452.7
13661.5
13915.1
14214.9
14561.7
14955.8
15396.8
15883.9
16415.4
16989.1
17602.1
18251.1
18932.2
19642.4
20378.8
21137.6
21902.5
22623.5
23213
23580.7
23693.8
23608.8
23442.2
23300.7
23235.9
23252.9
23341.1
23467
23526.8
23400
23052.3
22543.5
21964.8
21387.2
20855.4
20394
19978.6
19609.8
19283.8
18996.8
18745.6
18527.8
18340.9
18183.2
18052.5
17946.7
17862.8
17796.9
17745.7
17707
17679.7
17663
17656.2
17658.2
17668.3
17685.6
17709.2
17738.6
17773.3
17813
17857.6
17907.1
17961.7
18021.7
18087.9
18161.6
18244.7
18340.5
18453.7
18590.7
18760.1
18973.3
19244.8
19592.8
20039.6
20611.3
21337.8
22252
23388.3
24780.8
26460.7
28453.5
30771.2
33433.3
36430.9
39749.4
43365.9
47250.4
51361.2
55614.2
59813.1
63583.1
66418.8
67936.5
68196.6
67746.1
67219.7
66951.8
67027.9
67394.6
67537.5
66592.1
64074.9
60224
55662.1
50978.1
46541.3
42536.2
39049.1
36120
33739.2
31952.4
30616
29688.3
29083.8
28720
28525.3
28443.4
28433.8
28469.1
28532.8
28614.7
28708.7
28811.5
28920.9
29035.6
29154.3
29275.4
29397.2
29517.6
29634.3
29744.9
29847.4
29940.2
30023.2
30097.9
30167.5
30238
30317.6
6977.45
7053.03
7130.02
7210.33
7292.99
7374.74
7455.08
7537.61
7626.55
7723.74
7828.48
7938.79
8048.79
8149.95
8240.98
8327.18
8411.63
8494.25
8575.96
8654.29
8726.84
8799.5
8881.95
8981.64
9102.79
9246.98
9413.16
9597.58
9794.34
9991.32
10164.6
10294.6
10389.2
10468.3
10540.4
10604
10656.3
10685.3
10681.7
10656.3
10629.4
10619.3
10636
10687.6
10778.8
10913
11091.8
11314.4
11578
11878
12208.9
12563.6
12934.3
13311.8
13679.6
13994.9
14202.1
14289.3
14305.2
14309.8
14328.3
14359.3
14393.4
14401.9
14341.7
14208.3
14034.2
13852.2
13679.9
13523.4
13384.4
13263.6
13162.1
13081.4
13023.6
12991.4
12987.8
13015.9
13078.3
13177.5
13314.8
13494.7
13718.2
13987.1
14302.6
14665.1
15074.8
15531
16032.5
16577.5
17163.6
17787.4
18445.6
19134.5
19851
20592.5
21352.4
22103.8
22780.6
23287.9
23551.5
23573.7
23441.7
23276.1
23163.4
23133
23180.1
23290.1
23404.3
23398.7
23180.2
22758.5
22214.3
21634.5
21077.3
20577.8
20140.7
19749.3
19402.3
19095.8
18826.6
18591.8
18389.1
18216.2
18071.5
17952.8
17857.5
17782.4
17723.5
17678.2
17644.7
17622.3
17610.2
17607.6
17613.5
17627.1
17647.4
17673.9
17705.9
17743.1
17785.2
17832.4
17884.6
17942.2
18005.8
18076.6
18156.1
18247.4
18354.3
18482.9
18640.7
18838.1
19088.2
19407.8
19817
20340.2
21005.1
21842.7
22885.6
24167.1
25718
27564.8
29727
32209.9
35025
38156.5
41584.7
45283.5
49218.9
53331.5
57482.1
61376
64552.6
66553.8
67241.9
66987.4
66435.7
66048.6
65986.6
66262.8
66603.4
66238.6
64457.4
61202.8
56980.1
52412.6
47955.9
43855.3
40225.4
37120.4
34560.6
32534.6
31015.5
29947.2
29210.2
28745.9
28479.9
28350.5
28310.8
28328.2
28381.3
28457
28547.3
28647.4
28754.4
28866.8
28982.9
29101.4
29220.4
29338
29452
29560
29660
29750.5
29831.4
29904.3
29972.4
30041.2
30117.8
30211.3
6976.86
7052.56
7129.8
7210.4
7293.06
7374.56
7454.83
7537.73
7627.3
7725.05
7830.21
7940.46
8049.54
8149.23
8239.31
8325.17
8409.41
8491.89
8573.55
8651.46
8723.9
8797.46
8881.73
8983.76
9107.46
9254.06
9422.17
9607.89
9804.71
9999.26
10166.6
10290.4
10381.8
10459.9
10531.2
10593.6
10643.8
10668.9
10661.7
10635.7
10611.4
10605.9
10628.6
10687.2
10785.9
10928.1
11114.7
11344.7
11614.7
11920.1
12255.1
12612.3
12983.6
13359.4
13718.9
14013.4
14192.2
14258.1
14267.9
14275.4
14297.8
14330.5
14362.4
14358.1
14279.9
14134.7
13957.6
13778.2
13610.6
13459.3
13325.6
13210.3
13114.8
13040.8
12990.4
12966.7
12972.6
13011.1
13085
13196.6
13348.8
13541.3
13779.7
14064
14395
14773.2
15198.2
15669.2
16184.8
16742.8
17340.5
17974.5
18641.2
19337.2
20059.5
20805.2
21562.3
22290.2
22908
23321.7
23482.8
23429.8
23271.6
23121.3
23041.5
23043.8
23118.5
23240.8
23321.3
23234.9
22928.4
22448.5
21885
21314.8
20782.8
20313.8
19900.6
19531.9
19205.3
18917.4
18665.1
18445.9
18257.7
18098.3
17966
17858.5
17773
17705.7
17653.2
17613.4
17585
17567.4
17559.7
17561.2
17570.8
17587.6
17610.9
17640.1
17674.7
17714.3
17759
17808.8
17864
17925.1
17992.9
18069.2
18156.1
18257.3
18378.1
18525.3
18708.3
18939
19232.5
19607.5
20086.2
20694.4
21461.3
22417.9
23596
25026.3
26735.7
28745.2
31067.9
33702.6
36653.2
39898.5
43415.3
47175.1
51134
55195.9
59140.2
62573.2
65016
66174.5
66216
65714.5
65234.4
65035
65178
65565.2
65625
64543.3
61963.3
58185.6
53816.6
49386.9
45218.1
41465.3
38200.5
35457.1
33239.7
31524.8
30266.7
29400.5
28821.2
28470.5
28282.4
28204.4
28197.9
28236.7
28304
28389.3
28486.1
28590.7
28700.7
28814.4
28930.4
29047
29162.2
29274
29380.1
29478.4
29567.6
29647.2
29718.9
29785.7
29852.5
29925.7
30013.1
30123.1
6976.28
7052.12
7129.61
7210.5
7293.1
7374.35
7454.6
7537.91
7628.11
7726.4
7831.95
7942.06
8050.13
8148.38
8237.6
8323.15
8407.18
8489.56
8571.15
8648.63
8721.04
8795.61
8881.77
8986.17
9112.38
9261.34
9431.28
9618.16
9814.83
10006.5
10167.6
10285.6
10374.3
10451.5
10521.9
10583.1
10631.1
10652.1
10642.1
10615.4
10594.1
10593.5
10622.5
10688.1
10794.4
10944.5
11138.8
11375.9
11652.2
11962.8
12301.5
12660.7
13032.3
13405.5
13754.5
14025.7
14176.5
14224.7
14231.3
14242.3
14268.1
14302
14329.6
14310.4
14215.1
14060.3
13882
13705.8
13543
13396.9
13268.6
13159
13069.7
13002.4
12959.8
12944.8
12960.5
13009.9
13095.6
13220
13385.6
13592.5
13845.9
14145.6
14492.2
14885.8
15325.9
15811.3
16340.5
16910.9
17519.5
18163
18837.6
19540.1
20267.7
21015.9
21764.3
22456.3
23000.5
23313.8
23379.9
23270.8
23105.5
22980.3
22934.3
22967.1
23065.7
23185
23210.3
23035.1
22650.7
22129.4
21559.8
21004.2
20499
20063.1
19672.9
19325.6
19018.3
18748
18511.9
18307.6
18133.3
17986.8
17866.4
17769.4
17692.7
17632.5
17585.8
17551.3
17527.8
17514.9
17511.5
17516.8
17529.9
17549.9
17576
17607.9
17645
17687.2
17734.5
17787.2
17845.7
17910.8
17983.7
18066.6
18162.6
18276.2
18413.7
18583.5
18796.5
19066.3
19409.9
19848
20404.3
21106.2
21982.9
23065.1
24382.8
25963.1
27828.3
29993.6
32465.5
35236.7
38304.3
41643.7
45229.4
49027.8
52972.6
56905.6
60509.9
63329.2
64967.7
65389.9
65030.3
64496.6
64171.4
64173.6
64494.4
64804.1
64328.8
62458.9
59230.5
55155.5
50814.4
46611.1
42757.4
39350
36434.9
34029.8
32124.6
30683
29648.7
28943.8
28503.3
28244.3
28118.3
28081
28100.8
28156.6
28235.2
28327.9
28429.6
28537.2
28648.7
28762.4
28876.8
28989.9
29099.8
29204.5
29301.7
29390.1
29469.1
29540
29605.7
29670.6
29740.4
29822
29922.8
30050.5
6975.73
7051.7
7129.45
7210.6
7293.13
7374.12
7454.39
7538.14
7628.98
7727.78
7833.67
7943.58
8050.55
8147.41
8235.86
8321.12
8404.96
8487.27
8568.75
8645.8
8718.3
8793.98
8882.07
8988.84
9117.54
9268.81
9440.49
9628.38
9824.65
10012.9
10167.7
10280.2
10366.7
10443.1
10512.5
10572.6
10617.9
10634.7
10621.8
10595.7
10577.8
10582.2
10617.5
10690.2
10804.3
10962.2
11164.1
11408.2
11690.5
12005.9
12348
12708.9
13080.4
13449.9
13785.7
14031.6
14155.8
14189.8
14195.5
14210.4
14239.1
14273.5
14294.5
14258.9
14147.7
13985.6
13807.5
13635.2
13477.3
13336.4
13213.5
13109.7
13026.7
12966.5
12931.9
12926
12951.8
13012.4
13110.1
13247.5
13426.9
13648.4
13916.9
14232
14594
15002.8
15457.7
15957.2
16499.3
17081.6
17700.5
18352.8
19034.6
19743
20475.3
21223.1
21954.3
22596.4
23054.5
23265.7
23249.9
23105.2
22948.7
22854.2
22841.1
22901.8
23017.3
23113.7
23065.9
22802.4
22354.4
21807.9
21243.6
20710.8
20237.6
19825
19456.9
19129.7
18840.7
18587.1
18366.5
18176.6
18015.6
17881.4
17772.2
17684.9
17616.1
17562.3
17521.2
17491.7
17473.1
17464.6
17465.4
17474.4
17490.8
17513.8
17542.7
17577.2
17616.8
17661.7
17711.8
17767.7
17830
17899.8
17978.9
18069.9
18177
18305.7
18463.5
18660.3
18908.5
19223.6
19624.5
20133.3
20775.3
21578.4
22571.8
23784.6
25244
26973.3
28989.2
31300.9
33908.5
36799.7
39965.8
43380.6
47016
50825.4
54699.4
58395.8
61512
63605.1
64467.9
64348.7
63826.4
63394.8
63254.6
63453.8
63848.3
63836
62659.2
60063.2
56388.7
52213.1
48019.3
44089.9
40558.9
37487
34902.7
32809.9
31184.9
29981.4
29137.2
28579.2
28239.8
28057.3
27980.8
27975.7
28016.3
28085.8
28173.1
28271.4
28376.4
28485.6
28597.2
28709.5
28820.8
28929.2
29032.7
29129.2
29217.2
29296
29366.6
29431.5
29494.6
29561.2
29637.4
29729.9
29845.5
29990.8
6975.2
7051.32
7129.32
7210.72
7293.13
7373.88
7454.2
7538.43
7629.89
7729.19
7835.37
7945.01
8050.81
8146.31
8234.08
8319.1
8402.74
8485.01
8566.35
8642.99
8715.66
8792.56
8882.63
8991.78
9122.94
9276.46
9449.78
9638.53
9834.12
10018.5
10166.9
10274.4
10358.9
10434.6
10503
10561.8
10604.3
10617
10601.6
10576.5
10562.3
10572
10613.8
10693.7
10815.5
10981.1
11190.5
11441.3
11729.4
12049.3
12394.5
12756.8
13127.6
13492.1
13811.9
14031.2
14130.9
14154.1
14160.8
14179.7
14210.5
14244.6
14256.4
14203.6
14078.5
13911.1
13734.3
13566.2
13413.3
13277.6
13160.2
13062.3
12985.8
12933
12906.7
12910.2
12946.5
13018.5
13128.6
13279.2
13472.6
13710.9
13992.6
14323
14700.3
15124.1
15593.4
16106.5
16661.1
17254.5
17883.2
18543.5
19232
19945.8
20681.6
21424.5
22127.5
22705.3
23068
23181.7
23101.1
22940.4
22804.3
22742.8
22760.2
22846.4
22966.6
23018.4
22886.4
22541.9
22046.4
21488.4
20935.3
20428
19989
19599
19251.7
18943.6
18672
18434.4
18228.5
18052.4
17904.2
17781.8
17683
17604.7
17543
17495
17459.2
17434.7
17420.8
17416.7
17421.3
17433.9
17453.5
17479.4
17511
17548
17590.3
17637.9
17691.2
17750.7
17817.4
17892.9
17979.3
18080.4
18201
18347.9
18529.9
18758.4
19047.5
19414.5
19879.9
20467.1
21202.4
22113.6
23229.1
24575.9
26178.3
28055.8
30216
32661.9
35389
38382.8
41626.5
45099.2
48762.8
52542.9
56263.5
59591.2
62084.7
63413.4
63628.8
63202.1
62696.1
62427
62482.4
62837.1
63112
62554.1
60638.7
57468.5
53551.4
49424.3
45450.8
41816.3
38604
35853.4
33578.8
31770.7
30394.3
29397
28714.5
28278.2
28025.7
27903.2
27868.6
27884.9
27942.1
28022.2
28116
28218.2
28325.1
28434.7
28545.1
28654.7
28761.8
28864.3
28960.4
29048.3
29127.3
29197.8
29262.1
29323.7
29387.5
29458.8
29543.8
29648.8
29779.7
29941.2
6974.68
7050.98
7129.23
7210.84
7293.11
7373.62
7454.04
7538.76
7630.84
7730.62
7837.05
7946.34
8050.9
8145.11
8232.29
8317.07
8400.53
8482.8
8563.95
8640.21
8713.15
8791.35
8883.45
8994.98
9128.58
9284.25
9459.13
9648.58
9843.19
10023.2
10165.2
10268.2
10351.2
10426.1
10493.5
10551
10590.3
10598.9
10581.5
10557.9
10547.7
10563
10611.3
10698.5
10827.9
11001.3
11218
11475.4
11768.9
12093.1
12440.9
12804.3
13173.8
13531.5
13832.7
14024.7
14102.6
14118.3
14127.4
14149.9
14182.4
14214.7
14215
14145
14007.8
13837.2
13662.7
13499
13351.1
13220.7
13108.8
13017
12947.2
12902
12884.4
12897.6
12944.7
13028.4
13151.2
13315.3
13522.9
13775.9
14072.9
14418.6
14811
15249.5
15732.8
16259
16825.6
17429.5
18067.1
18734.9
19429.5
20148.2
20885.4
21616.5
22278.6
22778.5
23041.5
23067.8
22942
22782.3
22673.8
22645
22691.1
22797.4
22904.9
22892.8
22673.5
22260.3
21733.4
21176.2
20643.5
20167.6
19752.7
19384.4
19056.8
18766.7
18511.7
18289.4
18097.7
17934.8
17798.8
17687.6
17598.5
17528.1
17472.9
17430.5
17399.8
17380.2
17370.8
17370.8
17379.3
17395.2
17417.8
17446.5
17480.8
17520.5
17565.5
17616.2
17672.9
17736.6
17808.5
17890.7
17986.2
18099.4
18236.3
18404.9
18615.6
18881
19217.2
19642.8
20179.8
20852.8
21688.3
22713.7
23956.1
25440.9
27184
29198.4
31486.7
34054.1
36886.4
39966.7
43276.2
46789
50452.4
54142.8
57600.3
60421.5
62206.1
62826.8
62592.4
62067.5
61681.6
61595.5
61838.9
62233.1
62158
60922.9
58345.5
54789.7
50803
46826
43111.7
39776.8
36874
34427.2
32439.1
30887.6
29730.1
28910.3
28364.7
28029.4
27847.8
27773.2
27769.7
27805.6
27876
27964.1
28062.6
28167.1
28274.6
28383.3
28491.4
28597.2
28698.9
28794.7
28882.8
28962.2
29032.9
29096.9
29157.4
29218.5
29285.5
29364
29459.8
29578.7
29725.7
29900.7
6974.18
7050.67
7129.15
7210.96
7293.06
7373.35
7453.92
7539.14
7631.84
7732.08
7838.7
7947.55
8050.83
8143.83
8230.47
8315.04
8398.33
8480.61
8561.56
8637.46
8710.78
8790.36
8884.53
8998.45
9134.43
9292.19
9468.54
9658.51
9851.78
10027
10162.7
10261.8
10343.3
10417.5
10483.9
10539.9
10575.8
10580.5
10561.7
10540.1
10534.1
10555
10610.1
10704.6
10841.7
11022.7
11246.5
11510.2
11809
12137.2
12487.3
12851.2
13218.8
13567.7
13847.8
14012.5
14071.6
14083
14095.1
14120.9
14154.5
14183.4
14170.1
14083.3
13936.4
13764.1
13592.5
13433.5
13290.7
13165.5
13059.3
12973.7
12910.9
12873.6
12865
12888.3
12946.4
13042.1
13177.8
13355.7
13577.8
13845.5
14160.1
14518.6
14925.9
15378.8
15875.7
16414.5
16992.4
17606.2
18252.2
18926.8
19626.9
20349.8
21085
21795.1
22402.2
22813.3
22977.8
22931.3
22780
22634.9
22557.8
22560.2
22632.2
22749.4
22823.5
22733.5
22431.1
21964.3
21420
20870.4
20361.9
19920.1
19528.2
19180.4
18871.5
18598.6
18359.4
18151.7
17973.7
17823.5
17699.1
17598.4
17518.3
17455
17405.7
17368.6
17343
17328
17323.1
17327.1
17339.1
17358.2
17383.8
17415.3
17452.2
17494.7
17542.7
17596.6
17657.3
17725.8
17803.9
17894.3
18000.7
18128.5
18285
18479.3
18723.3
19031.3
19420.8
19911.9
20527.7
21293.6
22236.1
23382.7
24753.8
26370.2
28243.1
30387.3
32798.6
35473.6
38395.9
41547
44905.1
48432.3
52056.7
55571.3
58638.9
60837.7
61903
61958.1
61491.2
61017.5
60798.3
60899
61278
61520.1
60900
58973.7
55882.9
52125.1
48199
44433.8
40995.3
37955.8
35349.2
33187.3
31461.1
30138.7
29172.5
28504.9
28074.5
27822.6
27698.8
27662.5
27683.6
27742.9
27824.4
27919.3
28021.5
28127.6
28235.1
28342.2
28447.6
28536.4
28631.9
28720.3
28800.2
28871.5
28935.5
28995.1
29054.1
29117.3
29189.8
29277.1
29384.6
29517
29677.1
29862
6973.7
7050.39
7129.11
7211.08
7292.98
7373.08
7453.83
7539.58
7632.88
7733.55
7840.32
7948.65
8050.6
8142.46
8228.64
8313.02
8396.15
8478.46
8559.16
8634.74
8708.55
8789.6
8885.86
9002.17
9140.5
9300.24
9477.98
9668.3
9859.84
10029.9
10159.5
10255.1
10335.5
10409
10474.2
10528.5
10560.8
10561.8
10542.2
10523
10521.5
10548.3
10610.1
10712
10856.7
11045.2
11276
11545.8
11849.6
12181.4
12533.5
12897.6
13262.4
13600
13856.8
13995.2
14039
14048.4
14064
14092.6
14126.7
14150
14121.4
14019.2
13864.6
13692.1
13524
13369.7
13232
13112.2
13011.8
12932.6
12877
12847.9
12848.6
12882.3
12951.8
13059.8
13208.6
13400.5
13637.1
13919.9
14249.4
14623
15044.9
15511.8
16021.9
16572.8
17161.4
17784.4
18438
19118.9
19824.1
20549.7
21277.7
21955.2
22493.5
22808.8
22881.7
22780.6
22621.8
22500.5
22455.5
22486.8
22581.4
22694.9
22715.2
22540.6
22165
21659.4
21107.8
20575
20102.5
19684.9
19314.8
18986.4
18695.3
18438.7
18214.6
18021.1
17856.1
17718
17604.8
17513.8
17441.7
17384.9
17341.2
17309.3
17288.6
17278.2
17277.5
17285.3
17300.7
17323
17351.4
17385.6
17425.3
17470.6
17521.8
17579.6
17644.8
17719
17804.6
17904.7
18024.3
18169.7
18349.3
18573.7
18856.2
19212.6
19661.9
20225.5
20927.8
21794.8
22848.8
24114.3
25608.4
27353.7
29355.6
31620.6
34142.1
36910.6
39908.2
43115.1
46504.9
50021.2
53526.8
56748.1
59313.6
60827.7
61250.4
60933.5
60417.6
60077
60042.3
60319.8
60709.3
60584.5
59315.8
56782.7
53353.4
49547.4
45770
42249.4
39089.9
36336.8
34010.5
32113
30623.9
29504.6
28704.7
28166.9
27833.1
27649.9
27573
27567.7
27609.2
27680.9
27769.7
27868.4
27972.1
28077.8
28183.5
28287.2
28386.9
28483.1
28571.7
28652.3
28713.2
28777.5
28836.5
28893.7
28953.6
29020.9
29100.7
29198.2
29318.3
29464.5
29635.1
29826.9
6973.24
7050.15
7129.08
7211.19
7292.87
7372.8
7453.78
7540.07
7633.95
7735.05
7841.9
7949.62
8050.22
8141.02
8226.8
8311
8393.98
8476.33
8556.75
8632.08
8706.48
8789.06
8887.45
9006.14
9146.77
9308.39
9487.43
9677.91
9867.3
10031.9
10155.6
10248.2
10327.6
10400.3
10464.4
10516.9
10545.3
10543
10523
10506.6
10509.9
10542.7
10611.4
10720.6
10873
11068.9
11306.5
11582.1
11890.6
12225.7
12579.5
12943.3
13304
13628
13859.8
13973.5
14005.2
14014.7
14033.9
14064.6
14098.7
14114
14069.3
13953
13792.9
13621.3
13457.1
13307.6
13175
13060.7
12966.2
12893.7
12845.6
12825
12835.4
12879.7
12960.9
13081.4
13243.7
13449.6
13701
13998.7
14343.1
14731.6
15167.9
15648.4
16171.1
16733.5
17332.3
17963.8
18624.5
19311
20020.7
20746.6
21459.7
22091.7
22548.9
22766.5
22759.8
22623.3
22472.2
22379.9
22366.3
22424
22534.5
22625.4
22575.6
22317.1
21881.8
21353.2
20808.2
20302.8
19855.8
19461.3
19111.9
18801.9
18527.7
18286.7
18077.2
17897.1
17744.7
17618.2
17515.5
17433.5
17368.6
17317.8
17279.4
17252.5
17236.5
17230.7
17233.9
17245.4
17264.1
17289.3
17320.6
17357.6
17400.2
17448.6
17503.4
17565.4
17635.9
17716.9
17811.3
17923.3
18058.7
18224.8
18431.5
18690.8
19017.2
19428.4
19944.7
20589.3
21383.6
22352.6
23516.6
24902
26522.1
28391.8
30514.3
32889.5
35507.9
38355.9
41414.8
44663
48062.7
51521.3
54831.1
57646.3
59570.7
60406.1
60330.9
59839.6
59398.7
59222.9
59409.3
59805.9
60018.9
59356.5
57441.5
54444.3
50843.3
47104.3
43529.1
40266.8
37381.8
34903
32840.2
31185.1
29908.8
28968.4
28312.2
27884.7
27631.5
27504.8
27465.9
27485.6
27543.2
27624.2
27718.1
27819
27922.9
28027.2
28130
28229.7
28324.6
28413.9
28494.9
28566.7
28631.8
28689.9
28745.1
28801.3
28863.2
28935.6
29023.4
29131.1
29262.4
29418.7
29593.7
29793
6972.8
7049.93
7129.09
7211.29
7292.74
7372.52
7453.77
7540.61
7635.04
7736.56
7843.44
7950.45
8049.69
8139.52
8224.95
8308.99
8391.84
8474.24
8554.34
8629.48
8704.56
8788.75
8889.29
9010.34
9153.24
9316.64
9496.87
9687.3
9874.11
10033
10151.2
10241.1
10319.7
10391.5
10454.5
10504.9
10529.4
10524.2
10504.4
10491.1
10499.3
10538.2
10613.9
10730.6
10890.5
11093.6
11337.8
11619
11932
12270
12625.1
12988.1
13343.4
13651
13856.9
13948.3
13971.1
13982.1
14004.7
14037.1
14070
14075.1
14013.8
13885.5
13721.6
13551.8
13391.8
13247.2
13119.8
13011
12922.7
12857
12816.6
12805
12825.3
12880.6
12973.7
13107.1
13283
13503.2
13769.3
14082
14441.2
14844.3
15294.6
15788.3
16323.2
16896.5
17504.7
18144.1
18811.3
19503
20216.3
20938.5
21626.9
22199.5
22566.5
22689.9
22619.6
22466.4
22334.1
22273.1
22288.7
22370.4
22485
22533
22402.6
22067
21586.8
21046
20515.8
20043.5
19621.3
19248.8
18918.8
18626.4
18368.2
18142.3
17946.6
17779.5
17639.2
17523.8
17430.8
17356.9
17298.5
17253.3
17220.1
17198.2
17186.9
17185.2
17192.4
17207.3
17229.2
17257.3
17291.4
17331.3
17376.9
17428.8
17487.6
17554.5
17631.3
17720.4
17825.5
17951.6
18105.6
18296.2
18534.3
18833.5
19209.7
19681.8
20271
21000.5
21889.1
22963.8
24243.2
25748.3
27490.1
29478
31711.4
34185.3
36887.1
39801.4
42908.4
46181.4
49559.2
52893
55898.2
58190.4
59460.5
59716.9
59338.2
58836.1
58534.7
58536.6
58882.8
59267.7
59105.7
57824
55349.7
52050.8
48416.2
44822.2
41477.6
38475.9
35856.9
33638
31820.4
30385.6
29299.1
28515.4
27983
27648.6
27462.4
27381.9
27373.9
27413.5
27483.4
27571.2
27668.5
27770.1
27873
27974.9
28074.2
28169.1
28258.2
28340.4
28413.9
28478.9
28537.7
28591.9
28645.9
28703.8
28770.1
28849.7
28946.8
29065.3
29207.1
29372.3
29554.8
29758.8
6972.39
7049.73
7129.12
7211.37
7292.57
7372.25
7453.8
7541.21
7636.17
7738.07
7844.92
7951.13
8049.03
8137.97
8223.09
8306.98
8389.72
8472.16
8551.93
8626.94
8702.82
8788.67
8891.38
9014.78
9159.9
9325
9506.26
9696.43
9880.21
10033.3
10146.3
10234
10311.8
10382.7
10444.6
10492.5
10513.1
10505.3
10486.2
10476.4
10489.8
10534.9
10617.6
10741.7
10909.1
11119.4
11369.9
11656.6
11973.7
12314.3
12670.3
13031.9
13380.1
13668.8
13848.4
13920.1
13937.2
13950.6
13976.4
14009.9
14040.1
14032.9
13955.4
13817
13651
13483.8
13328.2
13188.5
13066.3
12963.3
12881.2
12822.6
12790.4
12787.9
12818.5
12885.1
12990.4
13136.9
13326.8
13562.2
13844.1
14171.8
14545.5
14963.6
15427.8
15931.4
16477.9
17061.5
17678.5
18325.2
18998.2
19694.7
20409.8
21122.4
21774.2
22274.5
22546.4
22584.7
22469.1
22315.5
22209
22179.1
22221.8
22322.5
22424.5
22410
22191
21786.2
21277.9
20744.3
20245.5
19796.9
19398.4
19046.7
18735.1
18459.3
18216.5
18004.9
17822.7
17668
17539.2
17434.3
17350.3
17283.6
17231.3
17191.5
17163.3
17146.3
17139.4
17141.9
17152.7
17171
17195.9
17227
17264
17306.8
17355.8
17411.5
17474.9
17547.6
17631.7
17730.4
17848.2
17991.2
18167.1
18386.1
18660.4
19004.8
19436.7
19976
20645.2
21463
22449
23631.9
25026.6
26648.9
28507.1
30605.1
32938.8
35499.3
38271.9
41239.9
44381.8
47657.1
50964.4
54084.2
56669.2
58359.3
59005.6
58835
58334.5
57925.9
57788.8
57962
58401.2
58593.2
57907
56024.6
53127.3
49678.8
46114.2
42712.5
39610.3
36864.6
34500.7
32526.5
30934.5
29698.5
28780.2
28133
27706.5
27450.4
27319.7
27277
27293.8
27349.2
27428.3
27520.8
27619.6
27720.9
27821.8
27920.6
28015.4
28104.9
28187.7
28262.7
28328.9
28387.8
28441.9
28494.1
28548.5
28609.6
28681.8
28769.4
28876.1
29004.8
29156.2
29329
29517
29722.9
6972.01
7049.55
7129.18
7211.43
7292.38
7371.99
7453.88
7541.86
7637.32
7739.59
7846.34
7951.67
8048.25
8136.39
8221.23
8304.97
8387.65
8470.09
8549.52
8624.48
8701.25
8788.82
8893.72
9019.45
9166.72
9333.44
9515.6
9705.25
9885.55
10032.6
10140.9
10226.8
10303.9
10373.8
10434.6
10479.8
10496.4
10486.6
10468.6
10462.6
10481.3
10532.9
10622.6
10754.1
10928.9
11146.1
11402.8
11694.6
12015.6
12358.5
12715
13074.5
13413.4
13681
13834.8
13889.9
13903.8
13920.2
13948.7
13982.8
14008.4
13987.3
13894.6
13748.1
13581.3
13417.3
13266.2
13131.5
13014.7
12917.4
12841.9
12790.6
12766.8
12773.9
12815
12893.3
13011.7
13172.4
13376.5
13626.3
13921.2
14263.5
14651.5
15083.9
15561.2
16080.4
16635.1
17228.3
17853.5
18506.7
19185.1
19885.6
20599.8
21294.6
21896.7
22313.7
22490.8
22457.5
22315.3
22174.2
22097.3
22097.1
22164.3
22275.3
22345.1
22255.2
21956.4
21506.1
20984.4
20463.8
19987.3
19562.5
19186.5
18854.3
18560.1
18300.2
18072.2
17874.4
17705
17562.3
17444.6
17349.4
17273.6
17213.5
17166.8
17132.2
17109.1
17096.7
17094.2
17100.6
17114.9
17136.4
17164.3
17198.4
17238.3
17284.4
17337
17397
17465.8
17545.3
17638.1
17748.3
17881.2
18043.9
18245.4
18497.1
18812.4
19207.5
19700.7
20312.6
21064.8
21973.5
23063.1
24355.4
25863.6
27599.1
29566.8
31765.8
34188.7
36823.7
39655.1
42665
45825.4
49069.2
52236.7
55036.4
57099.5
58164.9
58289.6
57871.5
57389.1
57123.8
57158.6
57485.9
57847.6
57653.8
56364.4
54025.2
50857.7
47385.4
43960.6
40776.5
37918.2
35420.7
33298.7
31553
30166.8
29109.1
28339.1
27810.3
27474
27283.5
27198.5
27186.5
27223.2
27290.7
27376.5
27471.7
27570.8
27670.6
27768.8
27863.6
27953.4
28037
28113.1
28180.9
28240.7
28294.5
28345.5
28397.2
28453.7
28519.3
28598.3
28694.4
28810.8
28948.9
29108.5
29287.3
29478.7
29684.5
6971.66
7049.39
7129.26
7211.47
7292.17
7371.74
7454
7542.55
7638.51
7741.09
7847.7
7952.06
8047.34
8134.77
8219.37
8302.96
8385.61
8468.04
8547.12
8622.11
8699.86
8789.21
8896.31
9024.33
9173.7
9341.95
9524.86
9713.72
9890.11
10031.2
10135.2
10219.5
10295.9
10364.9
10424.4
10466.6
10479.4
10468
10451.7
10449.7
10474
10532
10628.8
10767.7
10949.8
11173.8
11436.5
11733.2
12057.7
12402.5
12759.1
13115.6
13442.9
13687.5
13816.7
13858.3
13871.1
13890.8
13921.4
13955.7
13974.5
13938.3
13831.6
13679
13512.7
13352.3
13205.9
13076.2
12964.8
12873.5
12804.7
12761.1
12746
12762.9
12815.1
12905.4
13036.7
13210.5
13428.7
13692.8
14002.5
14359.3
14761.4
15207.8
15698
16228.7
16797.3
17399.5
18032.1
18688.7
19371.9
20075.2
20784
21450.6
21989.8
22316.1
22404.2
22315.9
22164.3
22044.9
21998.5
22025.7
22114.2
22221.9
22240.4
22069.3
21701.4
21220
20696.7
20194.3
19741.3
19339.8
18984.9
18671.1
18393.4
18148.8
17935
17750.4
17593.3
17462.2
17354.9
17268.8
17200.3
17146.2
17104.9
17075.4
17057.2
17049.3
17051
17061.1
17078.9
17103.5
17134.4
17171.5
17214.6
17264.1
17320.8
17385.9
17460.9
17548.3
17651.5
17775.2
17925.9
18111.6
18342.8
18631.7
18993.2
19444.4
20004.9
20695.6
21533.6
22536.2
23730.6
25131.7
26750.2
28593.6
30662.6
32952.7
35453.6
38151.6
41030.6
44069.7
47225.2
50386.5
53324.3
55695.9
57173.4
57660.1
57415.4
56915.1
56538.3
56433.8
56635
57042.6
57200.2
56495
54640
51908.8
48610
45208
41965.9
39009.7
36391
34131.5
32237.8
30702.8
29503.2
28604.3
27964.6
27537.9
27277.9
27142.1
27094.6
27107.5
27159.9
27236.5
27326.6
27423
27521.3
27618.8
27713.4
27803.6
27887.9
27965.2
28034.4
28095.5
28149.8
28199.9
28249.5
28302.1
28362
28433.2
28519.6
28624.5
28750
28896.7
29063.1
29246.1
29438.9
29643.1
6971.33
7049.24
7129.35
7211.49
7291.93
7371.51
7454.17
7543.29
7639.72
7742.59
7848.97
7952.29
8046.33
8133.13
8217.52
8300.96
8383.61
8465.99
8544.72
8619.84
8698.66
8789.83
8899.14
9029.43
9180.81
9350.52
9534.03
9721.77
9893.84
10029.1
10129.3
10212.2
10287.8
10355.8
10414
10453
10462.2
10449.7
10435.4
10437.7
10467.7
10532.2
10636.2
10782.5
10971.8
11202.4
11470.8
11772.1
12099.9
12446.3
12802.4
13154.8
13468.1
13688.4
13794.7
13826
13839.4
13862.3
13894.6
13928
13938
13886.1
13767.2
13610.3
13445.4
13288.9
13147.2
13022.6
12916.8
12831.7
12769.8
12734.2
12728.3
12755.8
12819.7
12922.3
13066.4
13252.7
13485.1
13763.6
14088.1
14459.1
14875.2
15335.1
15837.7
16379.8
16958.1
17568.8
18208
18873
19560.1
20262.5
20959.3
21585.6
22049.7
22282.7
22292.3
22167.2
22020.8
21928.5
21911.8
21964
22067.4
22153.6
22104.3
21849.5
21426.8
20933.1
20417.5
19936.5
19507.4
19128.1
18793
18496.6
18234.7
18004.6
17804.4
17632.6
17487.4
17367.2
17269.8
17191.9
17130
17081.7
17045.6
17021.2
17007.6
17004.2
17009.8
17023.6
17044.6
17072.3
17106.3
17146.4
17192.9
17246.4
17307.8
17378.6
17460.8
17557.6
17673
17812.7
17984.2
18196.6
18461.5
18792.4
19205.2
19717.9
20350.1
21122.1
22048
23150.4
24449.6
25957.5
27682
29626.3
31787.8
34158.6
36726.4
39476.8
42392.5
45444.4
48559
51566.4
54171.8
56025.6
56910.5
56928.4
56484.2
56023.9
55791.9
55854.3
56196.6
56553.9
56337.2
55068.8
52732.9
49751.1
46435.8
43167.9
40131.2
37404.1
35017.7
32984.3
31304.2
29962.4
28930.8
28172.9
27646.8
27307.7
27112.1
27021.5
27004.8
27037.6
27102
27185
27277.6
27374
27470.5
27564.8
27655.3
27740.4
27818.8
27889.5
27952.1
28007.2
28057.1
28105