/*--------------------------------*- C++ -*----------------------------------*\
| =========                 |                                                 |
| \\      /  F ield         | OpenFOAM: The Open Source CFD Toolbox           |
|  \\    /   O peration     | Version:  v2012                                 |
|   \\  /    A nd           | Website:  www.openfoam.com                      |
|    \\/     M anipulation  |                                                 |
\*---------------------------------------------------------------------------*/
FoamFile
{
    version     2.0;
    format      ascii;
    class       volScalarField;
    location    "0";
    object      p;
}
// * * * * * * * * * * * * * * * * * * * * * * * * * * * * * * * * * * * * * //

dimensions      [1 -1 -2 0 0 0 0];


internalField   nonuniform List<scalar> 
97664
(
131340
131288
131274
131237
131207
131185
131170
131158
131149
131150
131143
131151
131150
131141
131130
131121
131104
131090
131069
131064
131067
131070
131068
131064
131058
131054
131056
131052
131061
131070
131071
131062
131053
131044
131024
131009
130983
130980
130987
130993
130994
130993
130990
130986
130983
130978
130974
130969
130965
130961
130957
130958
130954
130961
130970
130975
130972
130965
130958
130950
130939
130913
130897
130875
130881
130890
130896
130899
130899
130897
130894
130890
130886
130881
130877
130874
130872
130870
130867
130865
130863
130860
130857
130854
130850
130848
130845
130843
130840
130838
130835
130833
130831
130830
130826
130826
130828
130831
130833
130833
130832
130830
130828
130825
130823
130819
130791
130791
130760
130754
130758
130765
130769
130771
130772
130771
130769
130767
130765
130763
130762
130760
130758
130756
130753
130750
130747
130743
130741
130740
130739
130737
130735
130733
130731
130729
130728
130726
130724
130722
130720
130718
130716
130715
130713
130711
130709
130708
130707
130706
130705
130704
130703
130702
130701
130701
130700
130700
130699
130699
130699
130699
130701
130701
130702
130703
130704
130705
130708
130712
130719
130729
130741
130757
130775
130793
130809
130816
130799
130749
130753
130684
130668
130670
130669
130667
130659
130648
130635
130616
130590
130568
130546
130517
130487
130457
130425
130393
130360
130322
130284
130249
130209
130167
130124
130080
130034
129986
129936
129884
129830
129773
129714
129652
129588
129520
129447
129373
129292
129188
131321
131275
131267
131230
131203
131183
131169
131157
131148
131151
131142
131152
131149
131140
131130
131121
131102
131090
131068
131065
131069
131071
131068
131064
131058
131054
131059
131052
131064
131072
131070
131061
131052
131043
131020
131008
130981
130981
130989
130994
130995
130993
130990
130986
130983
130978
130973
130969
130965
130961
130957
130961
130954
130964
130973
130977
130972
130964
130957
130949
130932
130913
130888
130876
130883
130893
130898
130900
130899
130897
130894
130890
130885
130881
130877
130875
130872
130870
130868
130865
130863
130860
130857
130853
130850
130848
130845
130843
130840
130838
130835
130833
130831
130830
130827
130828
130831
130834
130836
130835
130834
130831
130828
130824
130821
130813
130787
130781
130754
130754
130761
130767
130771
130773
130773
130771
130769
130767
130765
130763
130762
130760
130758
130755
130753
130750
130745
130743
130741
130740
130738
130737
130735
130733
130731
130729
130727
130725
130723
130721
130719
130718
130716
130714
130712
130710
130709
130707
130706
130705
130704
130703
130702
130701
130700
130699
130699
130698
130698
130697
130697
130698
130698
130699
130700
130700
130701
130703
130707
130712
130720
130732
130746
130761
130777
130792
130806
130809
130733
130721
130697
130668
130660
130663
130662
130658
130649
130637
130620
130598
130574
130555
130528
130501
130471
130441
130410
130379
130345
130305
130273
130237
130198
130157
130116
130073
130028
129982
129933
129882
129830
129775
129718
129659
129598
129531
129464
129400
129314
129247
131301
131263
131260
131223
131200
131181
131168
131157
131147
131153
131143
131153
131149
131140
131129
131120
131100
131089
131067
131066
131070
131071
131069
131064
131058
131054
131061
131053
131066
131073
131070
131061
131051
131042
131017
131005
130980
130983
130991
130995
130995
130993
130990
130987
130983
130978
130973
130968
130964
130961
130958
130961
130956
130967
130976
130977
130971
130963
130956
130949
130925
130912
130882
130878
130887
130895
130900
130901
130900
130898
130894
130889
130885
130881
130877
130875
130872
130870
130868
130865
130863
130860
130857
130853
130850
130848
130845
130843
130840
130838
130835
130833
130832
130829
130828
130830
130833
130836
130837
130836
130834
130831
130827
130824
130821
130803
130786
130766
130754
130757
130765
130770
130773
130774
130774
130772
130770
130767
130765
130764
130761
130760
130758
130755
130752
130748
130745
130742
130741
130740
130738
130736
130735
130733
130731
130729
130727
130725
130723
130721
130719
130717
130715
130713
130711
130709
130708
130706
130705
130704
130703
130702
130700
130699
130698
130698
130697
130696
130696
130696
130695
130696
130696
130697
130697
130698
130699
130701
130706
130713
130722
130735
130750
130766
130782
130798
130804
130770
130717
130720
130662
130655
130654
130656
130653
130647
130636
130623
130603
130582
130561
130538
130513
130485
130456
130426
130396
130365
130330
130297
130263
130226
130188
130149
130109
130067
130023
129978
129931
129882
129832
129779
129725
129668
129608
129547
129486
129412
129352
129287
131281
131250
131253
131217
131196
131179
131167
131156
131147
131153
131144
131153
131149
131139
131128
131119
131100
131087
131066
131066
131071
131072
131068
131064
131058
131054
131062
131054
131068
131074
131069
131060
131050
131040
131016
131001
130979
130984
130993
130996
130996
130994
130990
130987
130983
130978
130973
130968
130964
130961
130959
130960
130959
130970
130977
130977
130970
130962
130955
130947
130916
130908
130878
130881
130890
130898
130901
130902
130900
130898
130894
130889
130884
130880
130877
130875
130873
130870
130868
130865
130863
130860
130856
130853
130850
130848
130845
130843
130841
130838
130836
130834
130833
130829
130830
130832
130836
130837
130837
130836
130834
130830
130826
130823
130817
130793
130790
130757
130755
130761
130768
130773
130775
130775
130774
130772
130770
130767
130765
130764
130762
130760
130757
130754
130752
130747
130744
130742
130741
130740
130738
130736
130734
130732
130730
130728
130726
130724
130722
130720
130718
130716
130714
130712
130710
130708
130707
130706
130704
130703
130702
130700
130699
130698
130697
130696
130695
130695
130694
130694
130694
130694
130694
130694
130694
130695
130697
130700
130705
130714
130725
130739
130754
130769
130780
130792
130791
130725
130730
130670
130649
130647
130648
130649
130644
130636
130624
130608
130588
130564
130552
130523
130497
130469
130441
130413
130383
130352
130316
130286
130253
130216
130179
130141
130102
130062
130019
129975
129930
129883
129834
129784
129731
129677
129622
129565
129503
129443
129385
129326
131261
131238
131245
131210
131192
131177
131165
131155
131147
131152
131146
131154
131148
131138
131128
131117
131100
131084
131066
131067
131071
131072
131068
131063
131058
131055
131061
131057
131070
131074
131069
131059
131049
131037
131016
130997
130980
130986
130994
130997
130996
130994
130991
130987
130983
130978
130973
130968
130964
130961
130961
130959
130963
130973
130979
130977
130969
130961
130954
130944
130914
130902
130877
130883
130893
130900
130902
130902
130901
130897
130893
130888
130884
130880
130878
130875
130873
130870
130868
130865
130863
130860
130856
130853
130850
130848
130845
130843
130841
130838
130836
130835
130832
130830
130832
130835
130838
130839
130838
130836
130833
130830
130827
130822
130807
130790
130774
130755
130757
130765
130771
130774
130776
130775
130774
130772
130770
130767
130766
130765
130762
130759
130757
130754
130750
130746
130744
130743
130741
130740
130738
130736
130734
130732
130730
130728
130726
130724
130721
130719
130717
130715
130713
130711
130709
130708
130706
130705
130703
130702
130700
130699
130698
130697
130696
130694
130694
130693
130692
130692
130692
130692
130692
130692
130692
130693
130695
130699
130706
130716
130728
130742
130757
130771
130783
130791
130745
130683
130690
130647
130642
130642
130643
130641
130634
130624
130611
130592
130573
130553
130532
130509
130483
130455
130428
130400
130371
130336
130307
130276
130242
130207
130171
130135
130097
130057
130016
129974
129930
129885
129838
129790
129740
129688
129636
129584
129525
129474
129417
129359
131241
131225
131237
131204
131189
131175
131164
131155
131147
131151
131148
131154
131148
131138
131127
131116
131099
131082
131066
131068
131072
131072
131068
131063
131059
131057
131060
131060
131072
131075
131068
131058
131048
131034
131015
130993
130981
130988
130995
130998
130997
130994
130991
130987
130983
130978
130973
130968
130964
130961
130963
130958
130966
130976
130980
130976
130968
130960
130953
130937
130916
130893
130879
130886
130896
130901
130903
130903
130901
130897
130893
130888
130884
130880
130878
130875
130873
130871
130868
130865
130862
130859
130856
130853
130850
130848
130846
130843
130841
130838
130836
130836
130832
130831
130834
130837
130840
130840
130839
130836
130833
130830
130826
130821
130794
130794
130761
130756
130761
130768
130773
130776
130776
130776
130774
130772
130770
130767
130766
130764
130762
130759
130756
130753
130749
130746
130744
130743
130741
130739
130738
130736
130733
130731
130729
130727
130725
130723
130721
130719
130717
130714
130712
130710
130709
130707
130705
130704
130702
130701
130699
130698
130697
130695
130694
130693
130692
130691
130691
130690
130690
130690
130689
130689
130690
130691
130694
130700
130708
130719
130732
130746
130760
130771
130778
130769
130713
130716
130650
130634
130635
130637
130636
130632
130624
130613
130597
130577
130558
130544
130519
130494
130468
130442
130415
130388
130358
130327
130298
130265
130232
130199
130165
130129
130092
130054
130014
129973
129931
129887
129842
129796
129748
129699
129652
129596
129550
129498
129447
129390
131221
131211
131228
131197
131185
131172
131162
131154
131148
131150
131150
131155
131147
131137
131127
131114
131099
131080
131067
131069
131073
131072
131068
131063
131059
131059
131058
131063
131073
131075
131067
131057
131048
131030
131014
130990
130982
130990
130996
130998
130997
130994
130991
130987
130982
130977
130973
130968
130965
130961
130965
130959
130969
130978
130981
130975
130967
130960
130952
130930
130913
130886
130881
130889
130898
130903
130904
130903
130901
130897
130892
130888
130884
130880
130878
130875
130873
130871
130868
130865
130862
130859
130856
130853
130851
130848
130846
130843
130841
130838
130837
130836
130832
130833
130836
130840
130841
130841
130839
130836
130833
130829
130825
130815
130791
130783
130757
130758
130765
130771
130775
130777
130777
130776
130774
130772
130770
130768
130767
130764
130762
130759
130755
130752
130748
130746
130744
130743
130741
130739
130737
130735
130733
130731
130729
130727
130725
130722
130720
130718
130716
130714
130711
130710
130708
130706
130704
130703
130701
130700
130698
130697
130695
130694
130693
130692
130690
130690
130689
130688
130688
130687
130687
130687
130687
130689
130694
130701
130710
130722
130735
130748
130760
130770
130773
130718
130675
130669
130637
130628
130631
130632
130629
130622
130613
130600
130582
130564
130546
130527
130505
130480
130454
130429
130403
130375
130343
130316
130288
130256
130224
130192
130158
130124
130088
130050
130012
129973
129932
129890
129847
129802
129758
129713
129663
129618
129571
129524
129473
129424
131201
131198
131219
131191
131181
131170
131161
131153
131149
131149
131152
131155
131147
131136
131126
131113
131098
131078
131068
131070
131074
131073
131068
131063
131059
131061
131057
131065
131075
131075
131066
131056
131047
131028
131012
130987
130984
130992
130998
130999
130998
130995
130991
130987
130982
130977
130972
130968
130965
130962
130965
130961
130972
130980
130981
130974
130966
130959
130952
130922
130914
130882
130883
130893
130901
130904
130905
130904
130901
130897
130892
130887
130884
130881
130878
130876
130873
130871
130868
130865
130862
130859
130856
130853
130851
130848
130846
130843
130841
130839
130838
130835
130833
130835
130839
130842
130842
130842
130839
130836
130832
130829
130825
130806
130790
130770
130758
130761
130768
130774
130777
130778
130777
130776
130774
130772
130770
130768
130766
130764
130761
130758
130755
130751
130748
130746
130744
130743
130741
130739
130737
130735
130733
130731
130728
130726
130724
130722
130720
130717
130715
130713
130711
130709
130707
130705
130704
130702
130700
130699
130697
130695
130694
130692
130691
130690
130689
130688
130687
130686
130685
130685
130684
130684
130686
130689
130694
130702
130713
130725
130738
130751
130763
130767
130745
130699
130693
130634
130625
130624
130627
130626
130621
130612
130602
130587
130568
130552
130536
130515
130491
130466
130442
130417
130391
130363
130334
130308
130277
130247
130216
130185
130152
130119
130084
130048
130011
129973
129934
129893
129852
129810
129767
129727
129679
129638
129592
129546
129497
129455
131181
131186
131210
131184
131177
131168
131159
131152
131150
131148
131154
131155
131146
131136
131126
131111
131097
131076
131068
131071
131074
131073
131068
131063
131059
131063
131057
131068
131076
131074
131065
131055
131047
131024
131011
130985
130985
130993
130999
131000
130998
130995
130991
130987
130982
130977
130972
130968
130965
130963
130963
130964
130975
130982
130981
130973
130965
130957
130949
130918
130908
130880
130885
130896
130903
130906
130906
130904
130901
130896
130892
130887
130884
130881
130878
130876
130873
130871
130868
130865
130862
130859
130856
130853
130851
130848
130846
130843
130841
130839
130839
130834
130835
130838
130841
130843
130843
130842
130839
130836
130832
130827
130822
130796
130792
130761
130759
130765
130772
130776
130778
130778
130778
130776
130774
130772
130770
130769
130766
130764
130761
130758
130754
130750
130748
130746
130744
130743
130741
130739
130737
130735
130732
130730
130728
130726
130723
130721
130719
130717
130714
130712
130710
130708
130706
130704
130703
130701
130699
130697
130696
130694
130692
130691
130690
130688
130687
130686
130685
130684
130683
130683
130682
130682
130684
130688
130695
130705
130716
130728
130740
130750
130760
130759
130695
130681
130647
130624
130619
130621
130622
130619
130612
130602
130590
130573
130555
130540
130522
130501
130477
130453
130429
130405
130380
130350
130324
130298
130268
130239
130209
130179
130147
130114
130080
130046
130010
129973
129935
129896
129857
129817
129778
129734
129696
129655
129613
129567
129527
129486
131161
131174
131200
131178
131173
131165
131157
131151
131151
131147
131155
131154
131145
131135
131126
131109
131096
131075
131069
131072
131075
131073
131068
131063
131059
131065
131057
131070
131077
131074
131065
131055
131045
131021
131009
130984
130987
130995
131000
131000
130998
130995
130991
130987
130982
130977
130972
130968
130965
130965
130962
130968
130978
130984
130980
130972
130964
130956
130944
130920
130899
130881
130888
130898
130904
130907
130906
130904
130901
130896
130891
130887
130884
130881
130878
130876
130874
130871
130868
130865
130862
130859
130856
130853
130851
130848
130846
130843
130841
130839
130839
130835
130837
130840
130843
130845
130844
130842
130839
130836
130832
130828
130812
130795
130778
130759
130761
130769
130775
130778
130779
130779
130778
130776
130774
130772
130770
130769
130766
130763
130761
130757
130753
130750
130747
130746
130744
130743
130741
130739
130736
130734
130732
130730
130727
130725
130723
130721
130718
130716
130713
130711
130709
130707
130705
130704
130702
130700
130698
130696
130694
130693
130691
130690
130688
130687
130685
130684
130683
130682
130681
130680
130680
130680
130683
130689
130697
130707
130719
130731
130742
130751
130755
130728
130673
130675
130620
130615
130616
130617
130616
130611
130602
130592
130578
130560
130545
130529
130510
130488
130464
130441
130418
130394
130367
130340
130316
130288
130259
130232
130203
130173
130142
130110
130077
130044
130009
129973
129937
129900
129863
129825
129786
129748
129711
129672
129630
129590
129553
129512
131140
131162
131189
131172
131169
131163
131156
131150
131152
131147
131156
131154
131145
131134
131125
131108
131095
131073
131070
131073
131075
131073
131068
131063
131059
131067
131058
131072
131078
131074
131064
131054
131043
131020
131005
130983
130988
130997
131000
131001
130998
130995
130991
130987
130982
130977
130972
130968
130965
130967
130962
130971
130981
130984
130980
130971
130963
130956
130937
130919
130891
130883
130891
130901
130906
130907
130907
130904
130900
130896
130891
130887
130884
130881
130878
130876
130874
130871
130868
130865
130862
130859
130856
130853
130851
130848
130846
130843
130841
130840
130837
130836
130839
130843
130845
130846
130845
130842
130839
130835
130832
130826
130799
130798
130765
130761
130765
130773
130777
130780
130780
130780
130778
130776
130774
130772
130770
130768
130766
130763
130760
130757
130752
130749
130748
130746
130744
130743
130740
130738
130736
130734
130732
130729
130727
130725
130722
130720
130718
130715
130713
130711
130709
130707
130705
130703
130701
130699
130697
130695
130693
130691
130690
130688
130686
130685
130683
130682
130681
130680
130679
130678
130678
130679
130683
130690
130699
130709
130721
130731
130740
130748
130745
130688
130685
130630
130611
130610
130612
130612
130609
130602
130593
130581
130565
130547
130535
130517
130497
130475
130452
130429
130407
130383
130355
130331
130306
130278
130252
130224
130196
130167
130137
130106
130074
130042
130008
129974
129939
129903
129868
129834
129795
129762
129725
129687
129647
129612
129576
129539
131118
131151
131179
131166
131165
131160
131154
131148
131153
131147
131157
131154
131144
131134
131125
131106
131094
131072
131071
131074
131075
131073
131068
131063
131059
131066
131060
131074
131078
131073
131063
131053
131041
131020
131001
130984
130990
130998
131001
131001
130999
130995
130991
130987
130982
130976
130972
130968
130965
130969
130963
130974
130983
130985
130979
130970
130962
130955
130930
130918
130887
130885
130895
130903
130907
130908
130907
130904
130900
130895
130891
130887
130884
130881
130879
130876
130874
130871
130868
130865
130862
130858
130856
130853
130851
130848
130846
130843
130842
130842
130837
130838
130841
130845
130847
130847
130845
130842
130838
130835
130830
130821
130796
130788
130762
130762
130769
130776
130780
130781
130781
130780
130778
130776
130774
130772
130771
130768
130766
130763
130759
130755
130752
130749
130748
130746
130744
130742
130740
130738
130736
130733
130731
130729
130726
130724
130722
130719
130717
130714
130712
130710
130708
130706
130704
130702
130700
130698
130696
130694
130692
130690
130688
130686
130685
130683
130681
130681
130679
130678
130677
130676
130676
130679
130684
130692
130701
130712
130722
130733
130742
130744
130709
130656
130657
130610
130606
130607
130609
130607
130602
130593
130583
130570
130553
130538
130523
130506
130484
130462
130440
130418
130396
130370
130345
130322
130297
130270
130244
130217
130190
130161
130132
130102
130072
130040
130007
129974
129941
129908
129874
129838
129806
129772
129739
129701
129668
129634
129598
129565
131096
131141
131168
131159
131161
131158
131152
131147
131153
131147
131157
131153
131143
131133
131124
131105
131093
131072
131071
131075
131076
131073
131068
131063
131061
131065
131063
131076
131079
131072
131062
131052
131038
131019
130997
130985
130992
130999
131002
131001
130999
130995
130991
130987
130981
130976
130972
130969
130966
130969
130965
130977
130985
130985
130978
130969
130962
130953
130922
130913
130884
130887
130898
130905
130908
130909
130907
130904
130899
130895
130890
130887
130884
130881
130879
130876
130874
130871
130868
130865
130861
130858
130856
130853
130851
130848
130846
130843
130842
130841
130838
130840
130844
130847
130848
130847
130845
130842
130838
130834
130830
130812
130796
130775
130763
130766
130773
130779
130781
130782
130782
130780
130778
130776
130774
130772
130770
130768
130765
130762
130759
130754
130751
130750
130748
130746
130744
130742
130740
130738
130735
130733
130731
130728
130726
130724
130721
130719
130716
130714
130711
130709
130707
130705
130703
130701
130699
130697
130695
130693
130691
130689
130687
130685
130683
130681
130680
130679
130677
130676
130675
130674
130676
130680
130686
130694
130704
130714
130723
130730
130736
130731
130678
130676
130620
130602
130602
130605
130604
130601
130594
130584
130573
130558
130540
130529
130512
130494
130472
130450
130429
130408
130385
130359
130336
130313
130287
130262
130237
130211
130184
130156
130128
130099
130069
130038
130007
129975
129943
129911
129881
129847
129817
129784
129750
129716
129685
129652
129620
129590
131074
131132
131157
131153
131157
131155
131151
131147
131153
131149
131158
131153
131143
131132
131122
131105
131090
131072
131072
131076
131076
131073
131068
131063
131063
131064
131066
131077
131079
131071
131061
131052
131034
131018
130994
130986
130994
131000
131003
131002
130999
130995
130991
130986
130981
130976
130972
130969
130967
130967
130969
130980
130987
130985
130977
130968
130960
130949
130921
130907
130884
130890
130900
130907
130909
130909
130907
130904
130899
130894
130890
130887
130884
130881
130879
130876
130874
130871
130868
130865
130861
130858
130855
130853
130850
130848
130846
130844
130843
130840
130839
130842
130846
130849
130849
130848
130845
130842
130837
130833
130827
130802
130798
130766
130764
130770
130777
130781
130783
130783
130782
130781
130778
130776
130774
130773
130770
130768
130765
130761
130758
130754
130751
130750
130748
130746
130744
130742
130740
130737
130735
130733
130730
130728
130726
130723
130721
130718
130715
130713
130711
130709
130707
130704
130702
130700
130698
130696
130694
130691
130689
130687
130685
130683
130682
130680
130679
130677
130676
130674
130673
130673
130676
130681
130688
130697
130706
130715
130724
130732
130735
130694
130641
130641
130605
130598
130600
130602
130599
130593
130585
130575
130562
130546
130532
130518
130502
130481
130460
130439
130418
130397
130373
130349
130328
130304
130279
130255
130230
130204
130178
130151
130123
130095
130066
130036
130006
129975
129946
129916
129883
129855
129824
129794
129760
129731
129701
129670
129641
129614
131052
131121
131146
131147
131152
131152
131149
131146
131151
131150
131158
131152
131142
131132
131121
131104
131088
131072
131073
131076
131076
131073
131067
131063
131065
131063
131069
131078
131079
131070
131060
131051
131032
131016
130991
130988
130995
131001
131003
131002
130999
130996
130991
130986
130981
130976
130972
130969
130969
130966
130972
130983
130988
130984
130976
130968
130960
130943
130922
130899
130886
130893
130903
130908
130910
130910
130907
130903
130899
130894
130890
130887
130884
130881
130879
130876
130874
130871
130868
130864
130861
130858
130855
130853
130850
130848
130846
130844
130844
130840
130841
130845
130848
130850
130850
130848
130845
130841
130838
130833
130818
130801
130784
130764
130766
130774
130780
130783
130784
130784
130783
130781
130779
130776
130774
130773
130770
130767
130764
130761
130757
130753
130751
130750
130748
130746
130744
130742
130740
130737
130735
130732
130730
130728
130725
130723
130720
130717
130715
130712
130710
130708
130706
130704
130701
130699
130697
130695
130693
130690
130688
130686
130684
130682
130680
130678
130677
130675
130674
130672
130672
130673
130677
130683
130690
130699
130708
130717
130723
130727
130719
130668
130667
130608
130597
130595
130599
130597
130593
130586
130577
130566
130551
130534
130524
130507
130490
130469
130449
130428
130408
130387
130361
130341
130318
130294
130271
130247
130223
130198
130172
130146
130119
130091
130063
130034
130005
129977
129948
129920
129889
129862
129832
129803
129773
129745
129715
129687
129661
129636
131030
131111
131135
131141
131148
131149
131147
131146
131150
131152
131158
131152
131141
131131
131119
131104
131086
131072
131074
131077
131077
131073
131067
131063
131067
131062
131072
131080
131079
131070
131060
131051
131028
131015
130989
130989
130997
131002
131004
131002
130999
130996
130991
130986
130981
130976
130972
130969
130972
130966
130976
130985
130988
130983
130974
130967
130959
130937
130920
130893
130888
130897
130905
130910
130911
130910
130907
130903
130898
130894
130890
130887
130884
130882
130879
130877
130874
130871
130867
130864
130861
130858
130855
130853
130851
130848
130846
130844
130843
130841
130843
130847
130850
130851
130850
130848
130844
130841
130838
130833
130805
130803
130771
130766
130770
130778
130783
130785
130785
130785
130783
130781
130779
130776
130774
130772
130770
130767
130764
130760
130756
130753
130752
130750
130748
130746
130744
130742
130739
130737
130734
130732
130730
130727
130725
130722
130719
130717
130714
130712
130710
130707
130705
130703
130701
130698
130696
130694
130691
130689
130687
130685
130683
130681
130678
130677
130675
130674
130672
130671
130671
130673
130678
130685
130692
130701
130709
130716
130722
130724
130682
130631
130628
130599
130593
130594
130596
130593
130587
130578
130569
130556
130540
130527
130513
130498
130478
130458
130438
130418
130398
130375
130352
130332
130309
130286
130263
130240
130216
130192
130167
130141
130114
130087
130060
130032
130004
129978
129951
129921
129895
129867
129840
129811
129784
129756
129729
129704
129680
129657
131009
131100
131125
131135
131144
131147
131145
131146
131149
131153
131158
131151
131140
131131
131118
131103
131084
131073
131075
131078
131077
131073
131067
131063
131069
131062
131074
131081
131078
131069
131059
131049
131026
131013
130988
130990
130999
131003
131004
131002
130999
130996
130991
130986
130980
130976
130972
130969
130973
130967
130979
130987
130989
130982
130973
130966
130959
130928
130920
130889
130890
130900
130907
130911
130911
130910
130907
130902
130898
130893
130890
130887
130884
130882
130879
130876
130874
130871
130867
130864
130861
130858
130856
130853
130851
130848
130846
130845
130842
130841
130845
130849
130852
130852
130850
130848
130844
130840
130836
130828
130801
130794
130767
130767
130774
130781
130785
130786
130786
130785
130783
130781
130779
130776
130775
130772
130770
130766
130764
130759
130756
130754
130752
130750
130748
130746
130744
130741
130739
130737
130734
130732
130729
130727
130724
130722
130719
130716
130714
130711
130709
130707
130705
130702
130700
130697
130695
130693
130690
130688
130686
130684
130681
130679
130677
130676
130674
130672
130670
130669
130671
130674
130680
130687
130695
130703
130711
130716
130718
130706
130660
130654
130598
130591
130591
130593
130592
130587
130580
130571
130560
130545
130530
130519
130504
130487
130467
130447
130428
130408
130388
130364
130344
130323
130299
130278
130256
130233
130210
130185
130161
130136
130110
130084
130057
130030
130004
129978
129951
129924
129899
129873
129846
129820
129794
129768
129743
129720
129697
129676
130988
131089
131115
131129
131140
131144
131144
131145
131148
131154
131157
131150
131140
131130
131116
131102
131082
131073
131076
131078
131077
131073
131067
131063
131071
131063
131076
131081
131078
131068
131058
131047
131025
131009
130987
130992
131000
131004
131005
131003
131000
130996
130991
130985
130980
130976
130972
130970
130972
130970
130982
130989
130989
130981
130972
130965
130956
130925
130915
130887
130893
130903
130909
130912
130912
130910
130907
130902
130897
130893
130890
130887
130884
130882
130879
130877
130874
130870
130867
130864
130861
130858
130856
130853
130851
130848
130846
130846
130842
130843
130847
130851
130853
130852
130850
130847
130844
130840
130836
130819
130802
130781
130768
130771
130779
130784
130787
130787
130787
130785
130783
130781
130779
130777
130775
130772
130769
130766
130762
130758
130756
130754
130752
130750
130748
130746
130744
130741
130739
130736
130734
130731
130729
130726
130724
130721
130718
130716
130713
130711
130709
130706
130704
130701
130699
130697
130694
130692
130689
130687
130685
130682
130680
130678
130676
130674
130672
130670
130669
130669
130671
130676
130682
130689
130696
130704
130710
130715
130714
130663
130633
130616
130592
130587
130589
130590
130588
130581
130573
130563
130550
130535
130522
130509
130495
130476
130456
130437
130418
130399
130377
130355
130336
130313
130292
130271
130249
130226
130203
130179
130155
130130
130105
130080
130054
130028
130004
129978
129952
129928
129903
129877
129853
129828
129802
129778
129756
129734
129714
129695
130967
131078
131105
131124
131136
131141
131142
131146
131146
131155
131157
131149
131139
131130
131114
131101
131081
131074
131076
131079
131077
131072
131067
131063
131071
131064
131078
131082
131077
131067
131057
131045
131024
131005
130988
130994
131001
131005
131005
131003
131000
130995
130990
130985
130980
130976
130972
130971
130971
130973
130984
130991
130988
130980
130972
130963
130951
130927
130906
130888
130896
130905
130911
130913
130912
130910
130906
130902
130897
130893
130890
130887
130884
130882
130879
130877
130874
130870
130867
130864
130861
130858
130856
130853
130851
130848
130847
130845
130843
130846
130850
130852
130853
130852
130850
130847
130843
130839
130833
130808
130806
130771
130769
130775
130782
130787
130788
130788
130787
130786
130784
130781
130779
130776
130774
130772
130769
130766
130761
130758
130756
130754
130752
130750
130748
130746
130743
130741
130739
130736
130734
130731
130729
130726
130723
130720
130718
130715
130713
130710
130708
130706
130703
130701
130698
130696
130693
130691
130688
130686
130684
130681
130679
130676
130675
130672
130671
130669
130668
130669
130672
130678
130684
130691
130698
130705
130711
130711
130693
130651
130644
130591
130585
130586
130588
130587
130583
130575
130565
130555
130541
130526
130515
130500
130484
130465
130446
130427
130409
130389
130365
130347
130327
130304
130284
130263
130241
130219
130196
130173
130149
130125
130100