/*--------------------------------*- C++ -*----------------------------------*\
  =========                 |
  \\      /  F ield         | OpenFOAM: The Open Source CFD Toolbox
   \\    /   O peration     | Website:  https://openfoam.org
    \\  /    A nd           | Version:  9
     \\/     M anipulation  |
\*---------------------------------------------------------------------------*/
FoamFile
{
    format      ascii;
    class       volScalarField;
    location    "0";
    object      pPrime2Mean;
}
// * * * * * * * * * * * * * * * * * * * * * * * * * * * * * * * * * * * * * //

dimensions      [2 -2 -4 0 0 0 0];

internalField   nonuniform List<scalar> 
97664
(
233017
300054
508704
892448
625708
218681
157548
19338.9
78936.9
74498
262088
675122
1.16129e+06
1.67201e+06
2.16459e+06
2.27271e+06
1.99467e+06
2.10946e+06
1.99201e+06
1.4689e+06
716006
280251
191374
170528
51627.6
1088.89
88.8889
30258
67957.6
82688.9
57573.6
50986.9
118422
173264
201824
267912
346112
623472
1.40672e+06
2.47457e+06
2.15074e+06
1.36235e+06
790444
683670
729632
858050
829472
966977
856304
977202
1.01674e+06
1.01484e+06
1.07458e+06
1.02436e+06
1.02531e+06
1.20849e+06
1.57946e+06
1.93389e+06
2.34578e+06
2.73156e+06
3.01106e+06
3.16177e+06
3.14838e+06
2.37475e+06
2.22183e+06
2.32417e+06
2.74092e+06
2.99309e+06
3.10171e+06
2.99962e+06
3.24276e+06
3.61626e+06
3.41476e+06
3.02908e+06
2.74873e+06
2.81003e+06
3.3575e+06
4.47603e+06
5.87788e+06
7.44208e+06
9.57177e+06
1.4397e+07
2.24405e+07
3.11103e+07
3.79146e+07
3.49782e+07
1.87027e+07
9.44096e+06
5.00756e+06
2.32417e+06
768800
222222
147244
103058
64800
45400.9
28005.6
27690.9
65763.6
163211
337294
618272
924800
920272
835494
728827
627947
536648
443682
417089
455694
542188
689138
895122
1.01389e+06
1.07556e+06
1.07849e+06
1.26299e+06
1.51148e+06
1.76845e+06
2.09306e+06
2.58251e+06
3.44969e+06
4.52002e+06
5.51784e+06
6.55944e+06
7.08134e+06
6.79084e+06
6.15069e+06
7.40612e+06
5.80042e+06
4.58843e+06
4.54612e+06
4.96755e+06
5.53336e+06
5.37046e+06
4.26515e+06
4.05935e+06
4.19341e+06
4.635e+06
4.86928e+06
4.72269e+06
4.76993e+06
4.66753e+06
4.97596e+06
5.13494e+06
5.22291e+06
5.22076e+06
5.07742e+06
4.91098e+06
4.81948e+06
4.79261e+06
4.9298e+06
5.0923e+06
5.13067e+06
5.01178e+06
4.77611e+06
4.60258e+06
4.60056e+06
4.7432e+06
4.95705e+06
5.14777e+06
5.35299e+06
5.66947e+06
6.08307e+06
6.50402e+06
6.90928e+06
7.2733e+06
7.73293e+06
8.36132e+06
9.08232e+06
9.82427e+06
1.06015e+07
1.14146e+07
1.248e+07
1.37393e+07
1.48876e+07
1.55124e+07
1.5766e+07
1.5766e+07
1.52978e+07
1.42507e+07
1.24733e+07
1.11864e+07
1.02423e+07
9.14494e+06
9.08516e+06
9.63605e+06
9.93985e+06
9.54262e+06
9.10507e+06
9.01992e+06
8.69723e+06
8.26347e+06
7.66753e+06
7.42666e+06
7.35233e+06
7.31149e+06
7.07381e+06
6.78593e+06
6.57636e+06
6.53773e+06
6.53773e+06
6.70024e+06
7.00128e+06
7.34978e+06
7.66231e+06
7.71983e+06
7.74605e+06
7.73556e+06
7.47556e+06
7.26059e+06
7.09138e+06
7.05126e+06
7.10142e+06
6.80559e+06
6.71978e+06
6.66368e+06
6.61025e+06
6.65882e+06
224450
306806
503339
847602
619756
351122
192614
43808
95922
77093.6
305762
797164
1.23874e+06
1.70755e+06
2.21201e+06
2.42587e+06
2.25569e+06
2.15489e+06
1.79614e+06
1.24294e+06
622728
289814
177608
136242
20536.9
1422.22
272.222
10853.6
35912
47843.6
36090.9
40138.9
110137
166272
199712
241744
302124
645248
1.48494e+06
2.34433e+06
2.2078e+06
1.26511e+06
701718
623472
650560
700928
737708
899588
763024
903168
934800
945771
1.0215e+06
989356
1.02722e+06
1.22409e+06
1.57709e+06
1.94439e+06
2.39951e+06
2.72222e+06
3.14002e+06
3.33164e+06
2.91692e+06
2.24155e+06
2.18684e+06
2.43028e+06
2.88801e+06
3.19034e+06
2.99635e+06
2.95083e+06
3.14503e+06
3.32476e+06
3.01269e+06
2.59616e+06
2.33712e+06
2.4156e+06
2.95569e+06
3.9762e+06
5.22291e+06
6.57394e+06
8.95209e+06
1.46738e+07
2.47292e+07
3.75093e+07
4.50111e+07
4.09392e+07
2.24137e+07
1.0534e+07
4.79054e+06
2.16736e+06
787931
209952
116806
65522
42050
29120.9
33800
33110.2
82688.9
256806
462722
777920
873842
793800
709638
651321
594050
538030
464648
414657
433070
508032
646764
870320
1.07067e+06
1.20435e+06
1.3328e+06
1.52426e+06
1.72732e+06
1.93782e+06
2.16736e+06
2.59616e+06
3.30245e+06
4.14336e+06
4.85681e+06
5.43401e+06
5.91221e+06
6.09005e+06
6.03434e+06
7.21747e+06
4.45213e+06
4.205e+06
4.37291e+06
4.91307e+06
5.52449e+06
5.43401e+06
4.66549e+06
4.17605e+06
4.25736e+06
4.58036e+06
4.80913e+06
4.83398e+06
4.86928e+06
4.8485e+06
4.99912e+06
5.06681e+06
5.1264e+06
5.10721e+06
4.97386e+06
4.8672e+06
4.77199e+06
4.74936e+06
4.8319e+06
4.89219e+06
4.81327e+06
4.61067e+06
4.46009e+06
4.45014e+06
4.59651e+06
4.80707e+06
5.016e+06
5.17776e+06
5.40547e+06
5.73927e+06
6.0854e+06
6.38912e+06
6.7712e+06
7.26059e+06
7.76968e+06
8.31232e+06
8.90983e+06
9.66534e+06
1.03422e+07
1.1386e+07
1.28356e+07
1.36555e+07
1.424e+07
1.45944e+07
1.42756e+07
1.38233e+07
1.27042e+07
1.24235e+07
1.15616e+07
1.03998e+07
9.59804e+06
9.21922e+06
9.61265e+06
1.0095e+07
9.6712e+06
9.1849e+06
8.96902e+06
9.09653e+06
8.76967e+06
7.992e+06
7.41382e+06
7.12154e+06
7.07131e+06
7.03125e+06
6.77611e+06
6.59329e+06
6.4848e+06
6.46321e+06
6.52327e+06
6.7933e+06
7.03125e+06
7.38304e+06
7.47298e+06
7.46525e+06
7.3728e+06
7.25297e+06
7.11399e+06
6.98881e+06
6.89442e+06
6.80313e+06
6.67099e+06
6.4297e+06
6.37245e+06
6.36056e+06
6.32968e+06
6.32968e+06
234841
356168
498668
826041
693842
516806
229842
83776.9
94757.6
85422.2
336747
902272
1.36565e+06
1.71619e+06
2.17014e+06
2.5088e+06
2.4156e+06
1.98669e+06
1.59609e+06
1.11204e+06
536648
223112
138689
91592
6962
6805.56
6883.56
1643.56
20267.6
28640.2
27066.9
44203.6
122348
144722
143648
175232
284761
641467
1.44047e+06
2.41414e+06
2.05369e+06
1.38889e+06
649040
540800
541494
623472
667398
750721
694628
806450
838944
874724
947606
933889
985608
1.23036e+06
1.63082e+06
2.03616e+06
2.43616e+06
2.87041e+06
3.42871e+06
3.3437e+06
2.60681e+06
2.18963e+06
2.27556e+06
2.44942e+06
2.97517e+06
2.8832e+06
2.85764e+06
2.78165e+06
2.92336e+06
2.98168e+06
2.6773e+06
2.28125e+06
2.05504e+06
2.1273e+06
2.619e+06
3.58763e+06
4.81534e+06
6.18113e+06
8.78364e+06
1.5261e+07
2.68889e+07
4.12535e+07
5.23878e+07
4.70191e+07
2.61413e+07
1.30186e+07
4.93399e+06
2.29408e+06
783752
203948
83504.2
37173.6
26450
24346.9
39762
50138.9
182811
356731
542188
760556
754811
686792
613832
591147
578888
553352
510050
442427
431830
491371
621984
840672
1.06872e+06
1.27148e+06
1.53008e+06
1.75219e+06
1.94834e+06
2.1757e+06
2.38784e+06
2.82269e+06
3.49008e+06
4.23599e+06
4.8485e+06
5.18635e+06
5.4472e+06
5.51341e+06
5.68294e+06
5.48688e+06
3.84384e+06
3.9762e+06
4.25931e+06
4.76787e+06
5.26826e+06
4.96965e+06
4.30027e+06
4.04038e+06
4.12802e+06
4.45014e+06
4.67976e+06
4.70222e+06
4.75758e+06
4.80293e+06
4.89845e+06
4.93608e+06
4.94237e+06
4.91934e+06
4.83605e+06
4.75142e+06
4.68792e+06
4.67161e+06
4.70427e+06
4.69405e+06
4.56624e+06
4.42829e+06
4.37883e+06
4.498e+06
4.70222e+06
4.96755e+06
5.16276e+06
5.30077e+06
5.54445e+06
5.81405e+06
6.03434e+06
6.37007e+06
6.81051e+06
7.29365e+06
7.72769e+06
8.28245e+06
8.9888e+06
9.6185e+06
1.00621e+07
1.07154e+07
1.14784e+07
1.2377e+07
1.31345e+07
1.30936e+07
1.28897e+07
1.31892e+07
1.16773e+07
1.13351e+07
1.12401e+07
1.03391e+07
9.87753e+06
9.77999e+06
1.03664e+07
1.03149e+07
9.1592e+06
8.93236e+06
8.87047e+06
9.14494e+06
9.05393e+06
8.26076e+06
7.39329e+06
6.98383e+06
6.77856e+06
6.63937e+06
6.4776e+06
6.41059e+06
6.3463e+06
6.35818e+06
6.4297e+06
6.57636e+06
6.88205e+06
7.1442e+06
7.13161e+06
7.08385e+06
6.98881e+06
6.99879e+06
7.02625e+06
6.98632e+06
6.86475e+06
6.732e+06
6.4297e+06
6.23516e+06
6.09005e+06
6.02971e+06
6.00196e+06
5.77773e+06
211684
449352
501334
858924
732050
662017
283254
116484
85974.2
93312
388962
943938
1.44613e+06
1.76219e+06
2.1994e+06
2.51627e+06
2.43469e+06
1.83681e+06
1.5406e+06
1.09717e+06
486756
145081
74755.6
32258
747.556
36810.9
27066.9
10.8889
12376.9
18560.2
20536.9
41280.2
68450
77093.6
98272.2
139040
276272
620498
1.4689e+06
2.31268e+06
2.02273e+06
1.18683e+06
615310
454422
456968
559682
602802
653606
636944
720800
760556
812388
862422
868562
938450
1.22201e+06
1.62841e+06
2.04559e+06
2.48645e+06
2.94597e+06
3.43395e+06
3.50595e+06
2.70669e+06
2.29837e+06
2.15627e+06
2.43175e+06
3.3437e+06
3.06859e+06
2.68038e+06
2.54928e+06
2.68656e+06
2.67576e+06
2.3762e+06
1.99201e+06
1.7785e+06
1.84192e+06
2.29837e+06
3.21903e+06
4.40847e+06
5.80496e+06
8.62232e+06
1.5751e+07
2.90068e+07
4.50427e+07
5.70312e+07
5.09579e+07
2.91237e+07
1.25902e+07
5.3312e+06
2.37039e+06
735280
163211
47843.6
14677.6
12800
22755.6
32088.9
103664
199291
358987
581761
700139
655131
594777
532512
554756
595504
604267
592598
512072
463364
502002
624217
835494
1.04161e+06
1.29498e+06
1.55232e+06
1.89476e+06
2.08488e+06
2.34867e+06
2.56738e+06
2.98168e+06
3.63241e+06
4.36306e+06
4.94866e+06
5.15633e+06
5.17776e+06
5.10934e+06
4.97596e+06
4.20113e+06
3.61805e+06
3.96681e+06
4.28854e+06
4.63297e+06
4.95285e+06
4.71654e+06
3.91067e+06
3.82907e+06
3.93308e+06
4.27099e+06
4.506e+06
4.59045e+06
4.7104e+06
4.69813e+06
4.77405e+06
4.72884e+06
4.69201e+06
4.72884e+06
4.71245e+06
4.59449e+06
4.57834e+06
4.56423e+06
4.58036e+06
4.55215e+06
4.47803e+06
4.4263e+06
4.47404e+06
4.66753e+06
4.96965e+06
5.21645e+06
5.30728e+06
5.4538e+06
5.65152e+06
5.76641e+06
5.98119e+06
6.3915e+06
6.84747e+06
7.30129e+06
7.76443e+06
8.33953e+06
9.00577e+06
9.71523e+06
1.04607e+07
1.08423e+07
1.14689e+07
1.20115e+07
1.21722e+07
1.19137e+07
1.1917e+07
1.19724e+07
1.1332e+07
1.0737e+07
1.04638e+07
9.96662e+06
9.61557e+06
9.7682e+06
1.0161e+07
9.66241e+06
8.91264e+06
8.79202e+06
8.91264e+06
9.22208e+06
9.07096e+06
8.09092e+06
7.37792e+06
6.86475e+06
6.65152e+06
6.54014e+06
6.42731e+06
6.3463e+06
6.32731e+06
6.25165e+06
6.30835e+06
6.59813e+06
6.79084e+06
6.93161e+06
6.94402e+06
6.81789e+06
6.80559e+06
6.92168e+06
7.02375e+06
6.99131e+06
6.8524e+06
6.61267e+06
6.31072e+06
6.0761e+06
5.84136e+06
5.70544e+06
5.53114e+06
5.16918e+06
186050
478894
499334
877371
773768
730438
293889
107958
77880.9
105188
426272
969760
1.55115e+06
1.87663e+06
2.17709e+06
2.45828e+06
2.2998e+06
1.8676e+06
1.60086e+06
1.05222e+06
407404
120704
39200
6574.22
22613.6
86528
48050
1458
7938
12064.2
13667.6
21910.2
21080.9
38642
64800
114561
237590
610881
1.43821e+06
2.19661e+06
1.74596e+06
1.34261e+06
540800
379030
453152
473689
541494
567468
578888
664320
710432
756450
788768
810689
861547
1.193e+06
1.59014e+06
1.99334e+06
2.49091e+06
3.08347e+06
3.5912e+06
3.32992e+06
2.56134e+06
2.11905e+06
2.28267e+06
2.76438e+06
3.40431e+06
2.72378e+06
2.46568e+06
2.2571e+06
2.36024e+06
2.33424e+06
2.10262e+06
1.73104e+06
1.53008e+06
1.5842e+06
1.96416e+06
2.84332e+06
3.9593e+06
5.29426e+06
8.23368e+06
1.56315e+07
2.95629e+07
4.58818e+07
5.95941e+07
5.24493e+07
3.08898e+07
1.36625e+07
5.85961e+06
2.30552e+06
605000
126337
24200
2496.89
4355.56
18560.2
40707.6
111392
213422
402604
585362
645248
569600
492694
469804
524288
594777
696200
714411
627947
549152
569600
678224
880022
1.07262e+06
1.35137e+06
1.51728e+06
1.96548e+06
2.15074e+06
2.4244e+06
2.64193e+06
3.01269e+06
3.60909e+06
4.23405e+06
4.71859e+06
4.94237e+06
4.84227e+06
4.55215e+06
4.05365e+06
3.6396e+06
3.59477e+06
4.05555e+06
4.31005e+06
4.43027e+06
4.63703e+06
4.23793e+06
3.6414e+06
3.61088e+06
3.7538e+06
4.13761e+06
4.36897e+06
4.48202e+06
4.6127e+06
4.55416e+06
4.57632e+06
4.53607e+06
4.52002e+06
4.60865e+06
4.59651e+06
4.44815e+06
4.47404e+06
4.47005e+06
4.502e+06
4.49001e+06
4.48401e+06
4.506e+06
4.65735e+06
4.92561e+06
5.31815e+06
5.36609e+06
5.39452e+06
5.46923e+06
5.62242e+06
5.74831e+06
5.99272e+06
6.36769e+06
6.77611e+06
7.28856e+06
7.80125e+06
8.33136e+06
8.91546e+06
9.62142e+06
1.03058e+07
1.05555e+07
1.08578e+07
1.092e+07
1.1421e+07
1.10137e+07
1.09294e+07
1.11392e+07
1.10669e+07
1.04821e+07
9.84496e+06
9.60973e+06
9.38311e+06
9.76525e+06
9.69761e+06
9.34272e+06
8.76967e+06
8.85644e+06
9.05109e+06
9.38889e+06
9.10222e+06
8.14465e+06
7.42409e+06
6.95148e+06
6.73934e+06
6.61995e+06
6.53532e+06
6.58119e+06
6.51124e+06
6.44644e+06
6.45602e+06
6.5522e+06
6.73445e+06
6.9192e+06
6.74669e+06
6.6978e+06
6.74669e+06
6.90681e+06
7.00627e+06
7.00627e+06
6.82528e+06
6.54014e+06
6.2281e+06
5.8916e+06
5.60009e+06
5.39014e+06
5.10934e+06
4.72269e+06
197611
436178
484128
888889
782918
769627
267912
103968
88760.9
115520
449984
1.01104e+06
1.73973e+06
2.05234e+06
2.31125e+06
2.46124e+06
2.16181e+06
1.98802e+06
1.55702e+06
910350
327510
63368
28322
3640.89
30258
118422
87083.6
6574.22
3755.56
5976.89
6272
4802
3872
15138
40898
96214.2
234384
613832
1.36015e+06
2.02541e+06
1.64651e+06
1.11701e+06
436801
293889
308374
415872
480200
498002
511398
622728
672800
717602
730438
752356
832050
1.13301e+06
1.56056e+06
1.98802e+06
2.43322e+06
2.96867e+06
3.36788e+06
3.24955e+06
2.86402e+06
2.26136e+06
2.01603e+06
2.57948e+06
3.39388e+06
2.75186e+06
2.2022e+06
1.93914e+06
2.00801e+06
2.00267e+06
1.81515e+06
1.47805e+06
1.28855e+06
1.34152e+06
1.65014e+06
2.44647e+06
3.39909e+06
4.6127e+06
7.6076e+06
1.48549e+07
2.92052e+07
4.45316e+07
5.74592e+07
5.29352e+07
3.04148e+07
1.48949e+07
5.31597e+06
1.87792e+06
549851
105800
6123.56
1184.22
10.8889
8106.89
67712
124002
295424
418308
553352
583200
484128
421974
429356
530450
706464
830331
884450
750721
655894
663552
765497
955884
1.16536e+06
1.32954e+06
1.51844e+06
1.996e+06
2.13693e+06
2.3762e+06
2.61747e+06
3.01106e+06
3.54667e+06
3.97432e+06
4.32376e+06
4.5421e+06
4.37883e+06
3.95555e+06
3.56445e+06
3.42173e+06
3.6486e+06
4.10125e+06
4.18955e+06
4.19341e+06
4.30418e+06
3.84199e+06
3.48304e+06
3.42522e+06
3.62882e+06
4.03848e+06
4.23211e+06
4.34732e+06
4.46009e+06
4.367e+06
4.367e+06
4.39858e+06
4.40056e+06
4.52604e+06
4.47803e+06
4.33357e+06
4.3887e+06
4.40847e+06
4.46208e+06
4.496e+06
4.55215e+06
4.67976e+06
4.97596e+06
5.38795e+06
5.445e+06
5.32685e+06
5.33338e+06
5.56e+06
5.67171e+06
5.69869e+06
5.96506e+06
6.28942e+06
6.71001e+06
7.15681e+06
7.65448e+06
8.21476e+06
8.7613e+06
9.35425e+06
9.58636e+06
1.00024e+07
1.0703e+07
1.10764e+07
1.09044e+07
1.04638e+07
1.02032e+07
1.02544e+07
1.06076e+07
1.02333e+07
9.72699e+06
9.245e+06
9.21349e+06
9.3312e+06
9.37156e+06
9.12784e+06
8.95209e+06
9.1849e+06
9.35425e+06
9.33984e+06
8.75851e+06
8.04005e+06
7.49103e+06
7.06379e+06
6.78102e+06
6.58361e+06
6.50402e+06
6.59813e+06
6.62723e+06
6.51605e+06
6.41297e+06
6.50162e+06
6.75894e+06
6.92168e+06
6.81297e+06
6.71001e+06
6.85487e+06
6.97636e+06
7.08385e+06
7.11148e+06
6.887e+06
6.50883e+06
6.10402e+06
5.73701e+06
5.41424e+06
5.1264e+06
4.78642e+06
4.36503e+06
219122
402006
461440
866806
787931
751538
232562
109512
101851
140450
512072
1.14711e+06
1.92211e+06
2.19102e+06
2.37765e+06
2.49091e+06
2.06722e+06
1.77347e+06
1.41456e+06
806450
235756
22190.2
10464.2
320.889
70437.6
199291
125668
15370.9
320.889
854.222
747.556
18
10.8889
3813.56
24642
73216.9
199712
586084
1.34699e+06
1.84064e+06
1.48609e+06
945771
443054
230294
263538
363520
427504
434934
456968
570312
643734
692272
694628
698562
800534
1.09126e+06
1.50338e+06
1.94045e+06
2.48942e+06
3.20889e+06
3.60551e+06
3.15005e+06
2.87201e+06
2.22605e+06
2.39951e+06
2.96056e+06
3.53425e+06
2.57342e+06
1.98005e+06
1.64893e+06
1.6879e+06
1.70017e+06
1.53709e+06
1.24294e+06
1.08143e+06
1.10212e+06
1.40561e+06
2.02005e+06
2.79267e+06
3.89205e+06
6.83267e+06
1.48549e+07
2.76669e+07
4.08307e+07
5.36234e+07
4.97736e+07
2.9394e+07
1.50554e+07
4.38277e+06
1.6164e+06
523606
126002
12168
2178
3146.89
8624.22
73472.2
149422
314689
390728
507360
523606
453787
414657
431830
538030
745014
1.01009e+06
1.02818e+06
922082
845867
818347
886224
1.05706e+06
1.30035e+06
1.30573e+06
1.63443e+06
1.96681e+06
2.09852e+06
2.29265e+06
2.57645e+06
3.04058e+06
3.52009e+06
3.77575e+06
4.04227e+06
4.17412e+06
3.94618e+06
3.56445e+06
3.36442e+06
3.40779e+06
3.68471e+06
3.99125e+06
3.94618e+06
3.97808e+06
4.03091e+06
3.51302e+06
3.33164e+06
3.28363e+06
3.55022e+06
3.97432e+06
4.12228e+06
4.18955e+06
4.26515e+06
4.16065e+06
4.18183e+06
4.29636e+06
4.3218e+06
4.47603e+06
4.36897e+06
4.26709e+06
4.32572e+06
4.3966e+06
4.47603e+06
4.56624e+06
4.64922e+06
4.96965e+06
5.37264e+06
5.52227e+06
5.34645e+06
5.2186e+06
5.24664e+06
5.40328e+06
5.46702e+06
5.64928e+06
6.04129e+06
6.16941e+06
6.77611e+06
7.43694e+06
7.93347e+06
8.38042e+06
8.79761e+06
9.0086e+06
9.17347e+06
9.70936e+06
1.0146e+07
1.03998e+07
1.03634e+07
1.0128e+07
9.89532e+06
9.86864e+06
1.0134e+07
9.89235e+06
9.49899e+06
9.14494e+06
9.12214e+06
9.21063e+06
9.35137e+06
9.43517e+06
9.4178e+06
9.54554e+06
9.46125e+06
9.01143e+06
8.54222e+06
8.09897e+06
7.7408e+06
7.26821e+06
6.86475e+06
6.61025e+06
6.54255e+06
6.66125e+06
6.71978e+06
6.50402e+06
6.45363e+06
6.62965e+06
6.95396e+06
7.03625e+06
6.77611e+06
6.79821e+06
6.92168e+06
7.06128e+06
7.177e+06
7.25043e+06
6.96889e+06
6.5691e+06
6.00889e+06
5.6807e+06
5.28775e+06
4.94656e+06
4.54612e+06
4.10316e+06
244068
380774
442427
837218
783752
771282
204800
116162
134854
178006
577454
1.27361e+06
1.98536e+06
2.14797e+06
2.32561e+06
2.45681e+06
1.97077e+06
1.683e+06
1.29498e+06
740139
186050
9430.22
672.222
12587.6
119724
231200
136590
29282
1283.56
722
624.222
4736.89
3416.89
338
13122
55333.6
193857
549152
1.26723e+06
1.67689e+06
1.44727e+06
913051
386614
206939
215168
321068
380192
386614
406201
511398
615310
673574
680556
673574
781250
1.07947e+06
1.41905e+06
1.83042e+06
2.3559e+06
3.08678e+06
3.5912e+06
3.28876e+06
2.8848e+06
2.46568e+06
1.88309e+06
2.62052e+06
3.51655e+06
2.47457e+06
1.70263e+06
1.38889e+06
1.45977e+06
1.50453e+06
1.31977e+06
1.00915e+06
865928
897800
1.129e+06
1.63926e+06
2.22183e+06
3.22072e+06
5.94435e+06
1.36346e+07
2.54803e+07
3.68254e+07
4.71291e+07
4.43117e+07
2.64943e+07
1.20966e+07
3.9144e+06
1.63926e+06
671254
147606
5976.89
16080.2
2688.89
40707.6
68450
162450
249218
334562
456968
522242
504008
473689
504678
658952
972548
1.16536e+06
1.21576e+06
1.14005e+06
1.04064e+06
980934
1.01769e+06
1.18991e+06
1.42355e+06
1.37448e+06
1.79614e+06
1.91427e+06
2.07401e+06
2.26845e+06
2.58554e+06
3.06859e+06
3.49361e+06
3.71372e+06
3.88276e+06
3.87718e+06
3.65581e+06
3.38e+06
3.35578e+06
3.50242e+06
3.61626e+06
3.77392e+06
3.71736e+06
3.79777e+06
3.6522e+06
3.35232e+06
3.1467e+06
3.18192e+06
3.52894e+06
3.9518e+06
4.0328e+06
4.02523e+06
4.06125e+06
3.97432e+06
4.04417e+06
4.23405e+06
4.30027e+06
4.3966e+06
4.27294e+06
4.24958e+06
4.29831e+06
4.41837e+06
4.55014e+06
4.65532e+06
4.85888e+06
5.26826e+06
5.54445e+06
5.46041e+06
5.15847e+06
5.02022e+06
5.06256e+06
5.19494e+06
5.52449e+06
5.90305e+06
6.15537e+06
6.58603e+06
7.29111e+06
7.91224e+06
8.40773e+06
8.89014e+06
8.7167e+06
8.69445e+06
9.06244e+06
9.12784e+06
9.20205e+06
9.65362e+06
1.02907e+07
1.00233e+07
9.67413e+06
9.71817e+06
9.85976e+06
9.86568e+06
9.5048e+06
9.22494e+06
9.21349e+06
9.30817e+06
9.55719e+06
9.8154e+06
9.71229e+06
9.66827e+06
9.09653e+06
8.675e+06
8.47347e+06
8.29602e+06
8.10434e+06
7.58681e+06
6.97885e+06
6.72222e+06
6.67829e+06
6.8376e+06
6.85981e+06
6.68317e+06
6.66855e+06
6.93161e+06
7.23267e+06
6.92416e+06
6.83514e+06
6.85487e+06
7.03375e+06
7.08636e+06
7.1669e+06
7.10896e+06
6.83267e+06
6.4728e+06
5.97658e+06
5.62913e+06
5.21645e+06
4.80707e+06
4.36109e+06
3.9256e+06
268400
361250
426888
808144
794640
781250
229842
169750
165121
200556
615310
1.3778e+06
2.00534e+06
2.1273e+06
2.23168e+06
2.31412e+06
1.95888e+06
1.75469e+06
1.30357e+06
682891
137638
1720.89
1800
22472
132784
262571
207368
47432
6197.56
5338.89
4170.89
14563.6
10272.2
242
5066.89
37173.6
163592
534578
1.17045e+06
1.47462e+06
1.26829e+06
998756
269868
152720
184832
278756
342240
345004
378450
455694
573164
624962
678224
694628
770454
1.0368e+06
1.3448e+06
1.82405e+06
2.2092e+06
2.92659e+06
3.55378e+06
3.42522e+06
3.19034e+06
2.45533e+06
2.5992e+06
3.18361e+06
3.16177e+06
2.22043e+06
1.41905e+06
1.22096e+06
1.30357e+06
1.2982e+06
1.08241e+06
794640
655894
716804
826898
1.39111e+06
1.68545e+06
2.57494e+06
5.19924e+06
1.252e+07
2.2921e+07
3.2353e+07
4.0566e+07
3.92085e+07
2.32562e+07
9.92797e+06
4.04417e+06
1.94965e+06
535958
8277.56
7120.22
17672
4050
36450
64800
182006
216044
327510
448089
553352
577454
568178
682891
829472
1.0697e+06
1.2982e+06
1.35027e+06
1.2939e+06
1.17045e+06
1.09619e+06
1.15115e+06
1.33171e+06
1.50801e+06
1.56173e+06
1.91166e+06
1.91688e+06
2.04424e+06
2.25427e+06
2.645e+06
3.20889e+06
3.54845e+06
3.75197e+06
3.77942e+06
3.66483e+06
3.46547e+06
3.3437e+06
3.44794e+06
3.58406e+06
3.39909e+06
3.50948e+06
3.61984e+06
3.71009e+06
3.41301e+06
3.09176e+06
2.9703e+06
3.12e+06
3.52009e+06
3.93869e+06
3.97056e+06
3.89205e+06
3.91067e+06
3.86791e+06
3.96305e+06
4.17605e+06
4.28854e+06
4.40451e+06
4.24764e+06
4.2457e+06
4.2944e+06
4.504e+06
4.66957e+06
4.7432e+06
5.10721e+06
5.36609e+06
5.50899e+06
5.2186e+06
5.00756e+06
4.96965e+06
5.13281e+06
5.46041e+06
5.76867e+06
6.27761e+06
6.94899e+06
7.89634e+06
7.96271e+06
8.45701e+06
9.77115e+06
9.43517e+06
9.75936e+06
9.59804e+06
9.37734e+06
8.8312e+06
8.7613e+06
9.13924e+06
9.66827e+06
9.73876e+06
9.63898e+06
9.59804e+06
9.81245e+06
9.76231e+06
9.77704e+06
9.39756e+06
9.35425e+06
9.41201e+06
9.59512e+06
9.91312e+06
9.84201e+06
9.6419e+06
8.66945e+06
8.51744e+06
8.41867e+06
8.54773e+06
8.45701e+06
7.82761e+06
7.03875e+06
6.7933e+06
6.79576e+06
7.04876e+06
7.06629e+06
6.91424e+06
6.96142e+06
7.15681e+06
7.0688e+06
6.89442e+06
6.83267e+06
6.9664e+06
7.05627e+06
7.00877e+06
7.09138e+06
6.94651e+06
6.75894e+06
6.41536e+06
5.87788e+06
5.55111e+06
5.10721e+06
4.68384e+06
4.24764e+06
3.83091e+06
292868
340038
412232
773768
815790
809840
346667
222222
219564
195521
627947
1.40337e+06
1.95361e+06
2.0591e+06
2.36459e+06
2.25003e+06
2.09988e+06
1.86631e+06
1.30681e+06
619014
97976.9
910.222
7854.22
29605.6
156427
300054
228939
42243.6
10853.6
10560.9
7938
23328
17797.6
2837.56
430.222
22472
150518
474988
1.13804e+06
1.4258e+06
1.29176e+06
855432
285768
122348
159048
243602
306284
310998
343344
425042
528392
573164
644491
685230
760556
1.00725e+06
1.31869e+06
1.69894e+06
2.2998e+06
2.85924e+06
3.32476e+06
3.27851e+06
3.20889e+06
2.72222e+06
1.98138e+06
2.35879e+06
3.44619e+06
2.17987e+06
1.36015e+06
1.0368e+06
1.14206e+06
1.123e+06
883564
616050
489390
501334
665089
1.16943e+06
1.21264e+06
2.02139e+06
4.35125e+06
1.09169e+07
1.97695e+07
2.72814e+07
3.41138e+07
3.36747e+07
1.96105e+07
9.08516e+06
4.61675e+06
1.97077e+06
172480
9338.89
37720.9
19470.2
1494.22
25088
82688.9
200134
240818
329672
441174
614571
660484
710432
895122
1.01104e+06
1.19403e+06
1.29176e+06
1.35466e+06
1.33934e+06
1.28855e+06
1.26829e+06
1.35576e+06
1.5535e+06
1.70263e+06
1.81007e+06
1.98403e+06
1.94834e+06
2.08761e+06
2.32992e+06
2.73156e+06
3.21058e+06
3.61626e+06
3.78492e+06
3.6992e+06
3.50595e+06
3.34025e+06
3.34197e+06
3.49008e+06
3.34197e+06
3.24785e+06
3.41301e+06
3.58227e+06
3.49713e+06
3.21227e+06
2.84968e+06
2.84332e+06
3.10005e+06
3.52186e+06
3.91813e+06
3.9144e+06
3.77575e+06
3.75197e+06
3.76477e+06
3.92e+06
4.12994e+06
4.32964e+06
4.34142e+06
4.1799e+06
4.31396e+06
4.34535e+06
4.68996e+06
4.74936e+06
4.87344e+06
5.24448e+06
5.36172e+06
5.35517e+06
5.02656e+06
5.00756e+06
5.0838e+06
5.38357e+06
5.77773e+06
6.3463e+06
7.56086e+06
7.76443e+06
8.12582e+06
8.83961e+06
9.01992e+06
9.13924e+06
9.80654e+06
1.06938e+07
1.01851e+07
9.9458e+06
9.31681e+06
8.74456e+06
8.8284e+06
9.03125e+06
9.2364e+06
9.37445e+06
9.58052e+06
9.74758e+06
9.88049e+06
9.88049e+06
9.40912e+06
9.42069e+06
9.29955e+06
9.59512e+06
9.96067e+06
9.93391e+06
9.19633e+06
8.48171e+06
8.39134e+06
8.45153e+06
8.64725e+06
8.54222e+06
7.75655e+06
7.09138e+06
6.74179e+06
6.92168e+06
7.22507e+06
7.12657e+06
7.05377e+06
7.05878e+06
7.07131e+06
7.02625e+06
6.76629e+06
6.83021e+06
6.887e+06
6.83267e+06
6.80805e+06
6.83267e+06
6.70756e+06
6.55703e+06
6.21634e+06
5.76414e+06
5.41863e+06
4.99491e+06
4.57632e+06
4.1799e+06
3.78492e+06
352800
311524
399022
734472
832910
776258
429356
293378
245934
199291
605000
1.36455e+06
1.87921e+06
1.96284e+06
2.36604e+06
2.19242e+06
2.205e+06
1.8818e+06
1.15723e+06
562507
74498
6650.89
10464.2
39200
153828
328050
228038
53792
11250
15370.9
9614.22
27066.9
26144.2
10464.2
910.222
15488
134162
488731
1.05803e+06
1.22409e+06
1.18375e+06
763024
364658
115841
131072
216921
271830
281750
317339
394272
490710
514774
606468
675897
733664
992171
1.26936e+06
1.75469e+06
2.10946e+06
2.92014e+06
3.29902e+06
3.12667e+06
3.07355e+06
2.65114e+06
2.41853e+06
3.25805e+06
3.40257e+06
2.04424e+06
1.07458e+06
878254
1.01579e+06
914854
685230
456331
347778
341689
556161
836356
898694
1.56645e+06
3.52717e+06
9.49608e+06
1.68626e+07
2.21556e+07
2.809e+07
2.79752e+07
1.67466e+07
8.8144e+06
4.22242e+06
1.21992e+06
104272
1422.22
36992
17422.2
355.556
26296.9
75013.6
197611
234384
303161
486756
693057
877371
985608
1.01674e+06
1.05318e+06
1.127e+06
1.20022e+06
1.26405e+06
1.28962e+06
1.39779e+06
1.50222e+06
1.6176e+06
1.83681e+06
1.98005e+06
2.09852e+06
2.13556e+06
2.03616e+06
2.17153e+06
2.353e+06
2.77066e+06
3.2768e+06
3.77209e+06
3.77942e+06
3.62702e+06
3.36961e+06
3.23427e+06
3.22919e+06
3.37653e+06
3.42696e+06
3.22749e+06
3.32992e+06
3.46371e+06
3.39562e+06
3.06694e+06
2.68038e+06
2.77851e+06
3.14336e+06
3.56801e+06
3.91067e+06
3.87533e+06
3.6504e+06
3.5912e+06
3.70464e+06
3.87904e+06
4.08218e+06
4.34928e+06
4.37883e+06
4.29245e+06
4.29636e+06
4.51001e+06
4.82362e+06
4.71859e+06
5.00123e+06
5.24664e+06
5.27259e+06
5.09869e+06
4.87344e+06
4.97806e+06
5.14349e+06
5.49351e+06
5.97427e+06
6.7712e+06
7.01376e+06
7.32679e+06
7.58681e+06
8.02135e+06
8.31232e+06
8.39407e+06
9.57469e+06
1.07586e+07
1.13288e+07
1.11738e+07
1.0167e+07
8.62509e+06
8.80041e+06
8.71392e+06
8.85083e+06
8.90139e+06
9.16491e+06
9.51934e+06
9.86864e+06
9.93391e+06
9.71817e+06
9.1193e+06
9.1136e+06
9.42648e+06
9.8154e+06
9.6185e+06
9.01426e+06
8.45153e+06
8.32048e+06
8.36678e+06
8.63617e+06
8.49819e+06
7.67014e+06
6.90185e+06
6.75159e+06
6.92912e+06
7.21493e+06
7.09138e+06
7.11399e+06
7.06379e+06
7.02375e+06
6.83267e+06
6.70268e+06
6.81543e+06
6.78593e+06
6.70512e+06
6.51364e+06
6.50643e+06
6.41059e+06
6.25872e+06
5.93516e+06
5.57557e+06
5.24232e+06
4.83812e+06
4.48002e+06
4.12419e+06
3.78125e+06
361817
281250
384857
698562
826898
713614
498668
411627
227138
200978
655131
1.32302e+06
1.86502e+06
1.86889e+06
2.30838e+06
2.15212e+06
2.07401e+06
1.60444e+06
1.01484e+06
510050
53792
6728
17174.2
60088.9
224897
374401
266937
20808
9800
17546.9
7360.89
29930.9
39200
26144.2
6050
9706.89
129032
429356
966050
1.16943e+06
1.11005e+06
708844
285768
104577
108889
190962
241744
255374
303161
376134
464648
478242
572450
664320
753174
988418
1.2768e+06
1.73352e+06
2.3559e+06
2.88801e+06
3.21734e+06
3.07685e+06
2.8752e+06
2.74404e+06
2.23309e+06
2.29551e+06
3.23597e+06
1.81769e+06
858050
766322
820054
719200
522242
316278
200134
245934
402006
548454
728022
1.18888e+06
2.80845e+06
7.90959e+06
1.38513e+07
1.79321e+07
2.24897e+07
2.29345e+07
1.44471e+07
8.28516e+06
3.31961e+06
816642
90170.9
555.556
7938
4355.56
410.889
27222.2
93888.9
184022
225792
308374
567468
803912
1.03968e+06
1.09915e+06
1.13603e+06
1.10806e+06
1.09323e+06
1.10509e+06
1.17556e+06
1.31544e+06
1.56881e+06
1.805e+06
1.9721e+06
2.14936e+06
2.27982e+06
2.40097e+06
2.30838e+06
2.22746e+06
2.28552e+06
2.46272e+06
2.95407e+06
3.23597e+06
3.71009e+06
3.74832e+06
3.52894e+06
3.25125e+06
3.08678e+06
3.17016e+06
3.2956e+06
3.26486e+06
3.14838e+06
3.33164e+06
3.57692e+06
3.16513e+06
2.86562e+06
2.58705e+06
2.7738e+06
3.23766e+06
3.65581e+06
3.89577e+06
3.69557e+06
3.49184e+06
3.49008e+06
3.67566e+06
3.81248e+06
4.04038e+06
4.3218e+06
4.33161e+06
4.28464e+06
4.44417e+06
4.75347e+06
4.75758e+06
4.72064e+06
5.0562e+06
4.99701e+06
5.06256e+06
4.7988e+06
4.7104e+06
4.90471e+06
5.16918e+06
5.55333e+06
6.20694e+06
6.57636e+06
6.44405e+06
6.78838e+06
7.23521e+06
7.57643e+06
7.68843e+06
8.00533e+06
8.89014e+06
9.75642e+06
1.04181e+07
1.03938e+07
1.06076e+07
1.033e+07
8.57256e+06
8.44879e+06
8.6334e+06
8.49269e+06
8.8172e+06
9.3053e+06
9.54845e+06
9.60973e+06
9.72111e+06
9.17062e+06
9.06812e+06
9.28805e+06
9.46415e+06
9.38022e+06
9.12214e+06
8.57532e+06
8.31776e+06
8.24721e+06
8.54773e+06
8.21746e+06
7.29875e+06
6.71245e+06
6.59571e+06
6.79821e+06
6.95894e+06
7.05627e+06
6.98881e+06
6.8771e+06
6.69048e+06
6.61025e+06
6.66125e+06
6.75404e+06
6.64666e+06
6.44644e+06
6.25872e+06
6.16005e+06
6.10635e+06
5.90992e+06
5.63584e+06
5.36609e+06
5.04984e+06
4.71859e+06
4.38475e+06
4.08599e+06
3.80144e+06
406201
266450
365798
663552
782084
709638
567468
397832
205227
226689
693057
1.40784e+06
1.94965e+06
1.82278e+06
2.22183e+06
2.205e+06
1.76595e+06
1.39779e+06
956806
462722
41088.9
15022.2
32597.6
105188
225344
313632
198870
21910.2
12064.2
16200
2450
37904.2
59168
46614.2
13557.6
8022.22
102152
416480
867684
964198
1.02245e+06
720800
258241
80534.2
89323.6
163974
212987
233928
280251
387787
444310
448720
557568
646764
707257
935712
1.24189e+06
1.70509e+06
2.33712e+06
3.09176e+06
3.56623e+06
2.95731e+06
2.71911e+06
2.39951e+06
2.3559e+06
3.21734e+06
3.12667e+06
1.73228e+06
812388
667398
815790
566048
380774
202248
98864.2
162070
262088
407404
566758
881792
2.18544e+06
6.52327e+06
1.19919e+07
1.46088e+07
1.81604e+07
1.90509e+07
1.27311e+07
7.33445e+06
2.85924e+06
748272
140450
14792
7854.22
1760.22
43.5556
46208
98272.2
212987
244068
367510
627200
872080
1.15621e+06
1.26617e+06
1.27254e+06
1.15317e+06
1.03296e+06
1.00158e+06
1.1041e+06
1.36676e+06
1.72361e+06
2.07536e+06
2.1994e+06
2.3559e+06
2.4924e+06
2.62205e+06
2.52076e+06
2.42293e+06
2.36024e+06
2.58251e+06
2.96218e+06
3.52894e+06
3.81432e+06
3.72099e+06
3.47073e+06
3.12e+06
2.99962e+06
3.09341e+06
3.09176e+06
3.18192e+06
3.24276e+06
3.38e+06
3.49184e+06
2.95407e+06
2.66651e+06
2.53425e+06
2.81319e+06
3.35232e+06
3.70101e+06
3.80696e+06
3.59299e+06
3.41998e+06
3.45845e+06
3.68652e+06
3.78308e+06
3.97432e+06
4.26125e+06
4.31005e+06
4.41441e+06
4.54612e+06
4.72884e+06
4.69201e+06
4.76581e+06
4.85473e+06
4.76787e+06
4.70018e+06
4.494e+06
4.59449e+06
4.8319e+06
5.23585e+06
5.83225e+06
6.40104e+06
6.0854e+06
6.44644e+06
7.00627e+06
7.46525e+06
7.1871e+06
7.26821e+06
7.89369e+06
8.61402e+06
9.06528e+06
9.44386e+06
9.33408e+06
9.94283e+06
1.04607e+07
9.92797e+06
8.84241e+06
8.49819e+06
8.8228e+06
8.77246e+06
9.15349e+06
9.40045e+06