/*--------------------------------*- C++ -*----------------------------------*\
| =========                 |                                                 |
| \\      /  F ield         | OpenFOAM: The Open Source CFD Toolbox           |
|  \\    /   O peration     | Version:  v2012                                 |
|   \\  /    A nd           | Website:  www.openfoam.com                      |
|    \\/     M anipulation  |                                                 |
\*---------------------------------------------------------------------------*/
FoamFile
{
    version     2.0;
    format      ascii;
    class       volScalarField;
    location    "0";
    object      Ret;
}
// * * * * * * * * * * * * * * * * * * * * * * * * * * * * * * * * * * * * * //

dimensions      [0 0 0 0 0 0 0];


internalField   nonuniform List<scalar> 
97664
(
269.457
265.206
262.602
260.798
260.629
260.746
260.154
250.463
250.469
248.49
245.816
242.223
237.582
232.771
229.427
231.593
229.447
227.623
230.099
232.904
236.308
234.787
238.202
240.52
241.053
239.76
236.66
232.143
226.487
219.701
212.415
206.028
201.874
201.597
200.725
201.692
204.56
209.989
217.729
225.385
232.43
243.259
253.491
262.994
270.774
275.737
277.034
274.4
268.287
259.65
249.621
239.511
232.802
223.873
209.538
200.701
192.598
186.331
182.831
182.221
182.275
183.545
185.911
190.151
196.732
205.179
213.604
224.362
236.769
250.138
265.184
283.184
308.488
355.865
379.029
374.565
411.334
440.197
456.676
467.198
471.003
468.039
458.315
441.611
417.627
386.406
351.191
325.371
304.675
285.564
268.285
252.864
239.104
226.859
216.155
208.43
197.899
187.755
179.156
171.044
163.769
158.109
154.428
152.718
152.531
153.221
154.432
155.904
157.97
161.443
166.88
174.496
184.035
194.204
205.987
218.845
232.31
246.605
261.999
278.829
297.529
318.791
344.037
377.031
419.6
455.05
484.191
538.589
805.697
855.488
901.336
896.307
600.403
520.561
577.172
576.423
575.099
579.656
581.059
582.43
583.992
589.019
612.653
739.384
911.839
1005.66
1094.52
1051.93
672.206
607.961
740.851
1066.86
1043.19
988.349
943.643
874.555
799.264
711.582
613.731
510.275
406.544
338.121
290.503
252.968
223.4
199.607
180.401
163.83
149.835
137.708
126.758
116.738
107.29
98.5729
90.9236
84.7473
80.3182
77.6192
76.3729
76.1667
76.7548
78.4743
81.911
87.4526
95.2335
105.204
117.243
131.397
148.12
168.41
193.769
226.028
267.394
320.29
387.707
471.48
521.519
542.465
557.059
565.451
569
570.926
571.819
572.154
572.386
572.529
572.644
572.753
572.855
572.96
573.074
573.194
573.321
573.457
573.601
573.748
573.876
573.952
573.941
573.802
269.493
265.267
262.757
261.086
260.865
261.025
260.347
250.538
250.47
248.381
245.638
241.93
237.219
232.416
228.645
231.657
229.385
226.158
230.673
233.434
236.839
235.061
238.603
240.648
240.956
239.42
236.121
231.471
225.678
218.783
211.55
205.464
202.497
201.525
200.914
202.114
205.321
211.107
218.984
225.695
234.078
244.78
254.866
264.085
271.39
275.714
276.295
273
266.386
257.45
247.323
237.385
231.38
219.952
207.498
198.956
191.111
185.448
182.896
182.272
182.608
184.11
186.836
191.633
198.831
207.975
215.914
227.345
239.958
253.726
269.354
287.91
313.007
360.17
368.991
382.254
419.702
444.238
458.833
467.454
469.144
464.038
452.056
432.969
406.494
373.152
340.166
317.362
297.32
278.871
262.332
247.57
234.397
222.771
213.185
204.85
193.842
184.524
176.152
168.261
161.557
156.664
153.782
152.816
153.039
153.988
155.322
156.967
159.535
163.785
170.133
178.583
188.487
199.298
211.636
224.776
238.608
253.448
269.632
287.546
307.625
330.414
357.116
393.063
430.276
465.738
523.851
683.684
838.972
841.238
842.452
725.447
515.082
557.909
578.931
574.084
577.418
580.441
581.602
582.883
584.019
586.836
600.14
664.986
908.476
1061.55
1033.77
717.853
589.67
610.581
713.103
1093.08
998.356
951.749
893.754
822.514
733.929
644.53
545.095
432.922
356.425
304.639
265.095
233.058
207.809
187.189
170.063
155.25
142.573
131.375
121.059
111.465
102.466
94.3939
87.6496
82.5675
79.2536
77.5194
76.9698
77.2317
78.3944
81.0406
85.6457
92.4509
101.463
112.568
125.695
141.088
159.471
182.094
210.662
247.234
294.088
354.221
430.413
501.563
532.943
549.943
561.782
567.452
570.093
571.531
572.122
572.398
572.603
572.731
572.85
572.962
573.069
573.184
573.303
573.43
573.563
573.702
573.842
573.966
574.046
574.057
573.952
573.791
269.525
265.335
262.905
261.344
261.115
261.334
260.715
250.583
250.459
248.266
245.451
241.627
236.862
232.203
230.601
231.6
229.469
227.551
231.139
233.984
237.405
235.398
238.961
240.75
240.828
239.055
235.567
230.788
224.855
217.867
210.718
204.957
202.76
201.471
201.14
202.576
206.135
212.268
220.277
226.455
235.725
246.263
256.192
265.095
271.895
275.564
275.437
271.51
264.44
255.274
245.207
235.773
229.552
216.64
205.646
197.238
189.757
184.735
182.86
182.38
182.996
184.737
187.867
193.221
200.877
209.465
218.486
230.351
243.156
257.246
273.154
291.7
316.887
377.574
362.845
391.998
426.616
447.573
460.463
467.065
466.631
459.314
444.976
423.282
394.053
359.014
330.894
309.711
290.229
272.505
256.677
242.553
230.034
219.241
210.819
201.392
190.097
181.45
173.204
165.68
159.651
155.572
153.526
153.098
153.669
154.813
156.265
158.18
161.375
166.46
173.692
182.865
193.099
204.645
217.373
230.744
244.879
260.066
276.607
294.864
315.326
338.888
368.381
407.586
443.39
476.027
536.004
774.342
848.283
889.013
887.401
562.459
527.26
577.342
574.562
575.253
579.109
580.93
582.184
583.263
584.179
586.264
596.061
645.951
882.492
979.978
719.289
614.088
584.381
639.78
860.207
1065.75
959.314
914.131
846.988
757.356
682.479
573.826
451.659
371.888
320.33
277.604
243.857
216.429
194.593
176.429
161.053
147.714
136.056
125.555
115.716
106.524
98.0742
90.8017
85.0831
81.1175
78.8294
77.8767
77.8365
78.5684
80.5047
84.2133
90.0401
98.0843
108.256
120.431
134.661
151.42
171.701
196.966
229.003
269.802
321.842
388.099
470.247
519.859
541.416
556.204
564.935
568.892
570.95
571.965
572.387
572.636
572.81
572.935
573.056
573.17
573.283
573.404
573.528
573.658
573.792
573.928
574.05
574.135
574.158
574.086
573.978
573.816
269.558
265.41
263.05
261.586
261.368
261.559
260.453
250.699
250.43
248.145
245.253
241.316
236.513
232.051
231.899
231.511
229.642
228.606
231.564
234.547
237.987
235.768
239.28
240.825
240.67
238.666
234.998
230.092
224.02
216.954
209.921
204.496
202.839
201.454
201.398
203.081
207.004
213.486
221.689
227.499
237.343
247.712
257.465
266.019
272.289
275.29
274.465
269.935
262.439
253.033
242.793
232.676
227.347
213.873
203.865
195.564
188.522
184.115
182.83
182.549
183.439
185.433
189.031
194.969
203.063
211.278
221.236
233.386
246.436
260.906
277.492
299.022
339.147
367.402
365.602
401.518
432.246
450.347
461.519
465.997
463.38
453.81
437.036
412.839
381.456
347.042
322.62
302.29
283.41
266.407
251.224
237.654
225.575
215.062
207.63
196.935
186.779
178.434
170.365
163.348
158.064
154.804
153.507
153.537
154.393
155.688
157.268
159.63
163.57
169.577
177.754
187.698
197.978
210.194
223.223
236.929
251.585
267.535
285.174
304.962
327.524
354.309
390.862
432.879
472.966
531.005
679.462
825.757
845.229
833.459
711.3
507.743
560.164
578.256
572.97
577.375
580.035
581.447
582.708
583.562
584.289
585.702
591.822
621.247
755.792
715.299
619.316
587.298
592.697
668.346
951.666
1017.69
918.262
857.515
772.478
712.919
571.598
479.857
386.693
334.799
291.085
255.166
225.976
202.425
183.21
167.039
153.121
140.936
130.114
120.119
110.688
101.955
94.1973
87.8647
83.2329
80.3311
78.9171
78.5667
78.9511
80.2805
83.1541
88.0121
95.0568
104.263
115.487
128.669
144.074
162.45
185.009
213.311
249.26
295.26
354.149
428.876
499.184
531.169
548.787
560.914
567.073
570.017
571.592
572.303
572.641
572.861
573.015
573.14
573.261
573.377
573.495
573.619
573.746
573.877
574.009
574.132
574.222
574.258
574.218
574.132
574
573.88
269.594
265.493
263.195
261.821
261.637
261.926
261.744
250.672
250.396
248.019
245.045
240.997
236.173
231.918
232.701
231.424
229.812
229.391
231.983
235.096
238.401
236.173
239.563
240.872
240.483
238.254
234.418
229.384
223.173
216.049
209.151
204.033
202.84
201.478
201.686
203.632
207.919
214.694
222.866
228.776
238.915
249.126
258.679
266.855
272.569
274.895
273.387
268.288
260.418
250.862
240.803
232.943
225.766
211.318
202.133
193.956
187.405
183.526
182.849
182.777
183.936
186.207
190.304
196.748
205.091
213.433
224.073
236.451
249.811
264.872
282.689
306.174
346.933
360.481
372.407
410.149
436.8
452.617
461.946
464.251
459.456
447.587
428.387
401.587
367.899
336.927
314.874
295.103
276.914
260.641
246.12
233.189
221.857
212.837
204.165
192.895
183.699
175.458
167.692
161.292
156.795
154.323
153.703
154.112
155.19
156.6
158.402
161.333
166.074
172.963
181.895
192.096
203.18
215.832
229.095
243.083
258.077
274.365
292.284
312.262
335.09
363.14
400.399
434.288
465.698
528.653
765.93
827.152
873.545
882.136
550.954
531.015
575.209
574.542
574.427
578.915
580.654
582.006
583.128
583.795
584.324
585.08
587.852
598.809
630.781
623.448
590.33
582.617
601.644
692.349
986.152
965.378
865.431
805.726
756.858
588.155
492.471
407.442
343.477
306.767
266.833
236.233
210.88
190.437
173.277
158.77
146.071
134.805
124.593
114.996
105.983
97.8282
90.9117
85.6146
82.0642
80.1188
79.4031
79.492
80.343
82.457
86.3879
92.4339
100.663
110.967
123.211
137.468
154.204
174.35
199.282
230.789
270.862
321.671
386.263
467.311
517.145
539.813
554.95
564.228
568.609
570.919
572.08
572.594
572.883
573.076
573.219
573.345
573.465
573.583
573.704
573.829
573.957
574.088
574.21
574.306
574.353
574.339
574.271
574.163
574.048
573.965
269.634
265.582
263.342
262.053
261.91
262.165
260.239
250.751
250.348
247.888
244.826
240.671
235.838
231.776
233.176
231.384
230.089
229.978
232.424
235.724
239.347
236.507
239.819
240.892
240.268
237.82
233.827
228.662
222.317
215.158
208.443
203.732
202.786
201.547
202.004
204.233
208.896
216.066
225.003
230.039
240.459
250.503
259.831
267.598
272.734
274.38
272.206
266.57
258.348
248.625
238.705
232.229
221.838
209.174
200.416
192.445
186.482
183.568
182.874
183.072
184.472
187.085
191.727
198.778
207.811
215.68
226.985
239.563
253.26
268.73
286.994
312.713
364.414
356.226
381.436
417.527
440.513
454.381
461.72
461.828
454.791
440.501
418.638
389.179
354.798
328.194
307.414
288.178
270.705
255.096
241.152
228.759
218.056
210.146
200.272
189.324
180.707
172.565
165.243
159.556
155.883
154.213
154.062
154.792
156.039
157.565
159.734
163.361
168.998
176.832
186.557
196.759
208.634
221.595
235.176
249.646
265.354
282.683
302.105
324.256
350.444
384.676
426.815
467.524
522.804
657.027
827.186
842.155
834.424
689.814
509.686
562.333
575.205
573.496
576.541
579.837
581.233
582.528
583.448
583.965
584.3
584.571
585.444
588.592
595.619
593.026
581.558
581.067
602.696
693.099
971.232
895.534
833.174
783.6
598.649
507.196
426.603
358.581
313.445
281.084
246.643
220.13
198.037
180.007
164.573
151.431
139.669
129.167
119.394
110.17
101.654
94.226
88.2745
84.0497
81.5091
80.3571
80.1575
80.6409
82.1116
85.1652
90.2258
97.4488
106.784
118.072
131.243
146.563
164.782
187.133
215.152
250.476
295.123
352.3
425.56
495.372
528.972
547.047
559.819
566.508
569.831
571.613
572.46
572.862
573.115
573.285
573.421
573.547
573.666
573.786
573.909
574.036
574.164
574.287
574.389
574.45
574.459
574.402
574.319
574.207
574.118
574.067
269.677
265.677
263.493
262.287
262.179
262.244
256.833
250.963
250.283
247.752
244.596
240.341
235.516
231.647
233.438
231.346
230.158
230.488
232.882
236.314
239.804
236.87
240.045
240.884
240.026
237.366
233.225
227.927
221.451
214.279
207.73
203.128
202.765
201.657
202.353
204.883
209.919
217.331
224.862
231.487
241.962
251.841
260.915
268.245
272.783
273.748
270.93
264.794
256.279
246.534
237.027
230.821
218.511
207.264
198.71
191.037
185.683
183.55
182.941
183.43
185.07
188.064
193.251
200.758
209.24
218.183
229.936
242.718
256.781
272.768
291.78
316.746
359.554
356.966
390.943
423.653
443.567
455.587
460.804
458.686
449.355
432.639
408.35
376.898
343.57
320.268
300.158
281.537
264.784
249.823
236.462
224.605
214.406
206.717
195.818
186.129
177.746
169.809
163.052
158.128
155.249
154.322
154.565
155.551
156.92
158.63
161.31
165.711
172.237
180.859
190.82
201.77
214.191
227.366
241.22
256.026
272.084
289.709
309.304
331.524
358.041
394.9
430.502
463.02
519.693
741.82
821.018
851.916
866.305
540.023
536.182
574.418
572.411
574.939
578.074
580.525
581.797
582.969
583.686
584.066
584.21
584.137
584.048
584.294
584.873
582.675
578.129
580.725
607.134
710.137
964.539
885.071
786.917
604.2
508.9
442.809
373.793
324.894
291.138
258.693
229.669
206.36
186.977
170.826
156.851
144.779
133.842
123.887
114.472
105.669
97.7761
91.2164
86.3028
83.1213
81.4656
80.9281
81.1266
82.0701
84.3394
88.4396
94.6541
103.01
113.384
125.645
139.879
156.571
176.599
201.16
231.796
270.606
320.191
383.15
462.304
514.122
537.487
553.463
563.257
568.217
570.79
572.16
572.778
573.116
573.336
573.49
573.622
573.746
573.865
573.987
574.111
574.237
574.361
574.469
574.541
574.564
574.527
574.459
574.36
574.265
574.201
574.183
269.726
265.779
263.65
262.525
262.445
262.29
254.892
251.19
250.202
247.611
244.355
240.005
235.194
231.483
233.589
231.377
230.575
230.907
233.351
236.739
237.597
237.373
240.233
240.849
239.757
236.893
232.613
227.179
220.58
213.421
207.1
203.177
202.716
201.805
202.739
205.583
210.983
218.572
225.193
233.025
243.422
253.135
261.926
268.791
272.716
273.003
269.566
262.968
254.191
244.367
234.866
229.065
215.662
205.47
197.04
189.772
185.078
183.496
183.074
183.839
185.725
189.17
194.929
202.867
210.999
220.856
232.914
245.937
260.385
276.852
296.822
327.501
353.982
362.432
399.868
428.676
446.056
456.183
459.213
454.866
443.201
423.956
396.917
363.1
334.186
312.731
293.143
275.213
259.165
244.837
232.111
221.086
212.411
203.33
191.926
183.105
174.832
167.247
161.156
157.042
155.005
154.601
155.186
156.363
157.858
159.849
163.167
168.415
175.847
185.205
195.405
207.061
219.876
233.334
247.629
263.079
280.087
299.109
320.747
346.075
378.509
420.926
462.187
514.553
640.685
814.572
842.719
828.502
661.044
513.473
563.776
573.711
572.298
576.775
579.084
581.162
582.304
583.318
583.843
584.078
584.024
583.668
583.027
582.09
580.699
578.171
575.423
579.01
607.387
711.587
945.765
737.412
616.837
510.703
447.815
386.787
335.594
298.511
269.719
239.911
215.15
194.498
177.296
162.696
149.983
138.732
128.442
118.886
109.834
101.555
94.4288
88.8445
84.9821
82.7543
81.8155
81.7315
82.2977
83.8835
87.089
92.2982
99.6522
109.068
120.378
133.506
148.69
166.628
188.514
215.97
250.78
294.547
349.513
420.044
491.201
525.729
545.237
558.297
565.83
569.513
571.579
572.58
573.068
573.356
573.548
573.691
573.821
573.942
574.062
574.184
574.309
574.433
574.545
574.628
574.664
574.647
574.591
574.506
574.414
574.339
574.301
574.325
269.78
265.887
263.812
262.767
262.709
262.349
253.755
251.388
250.109
247.464
244.104
239.666
234.882
231.314
233.669
231.433
230.882
231.302
233.829
237.134
236.506
237.883
240.386
240.786
239.462
236.403
231.99
226.417
219.705
212.589
206.558
203.749
202.647
201.994
203.156
206.333
212.076
219.8
225.893
234.584
244.842
254.382
262.861
269.235
272.533
272.149
268.118
261.088
252.062
242.127
232.44
226.978
213.183
203.723
195.419
188.594
184.382
183.493
183.267
184.303
186.457
190.384
196.657
204.894
213.08
223.622
235.926
249.234
264.13
281.45
304.538
347.736
350.13
370.549
407.736
432.798
448.011
456.133
456.92
450.272
436.147
414.294
384.794
350.959
325.905
305.423
286.382
269.149
253.735
239.955
227.7
217.034
209.604
198.798
188.581
180.135
172.019
164.926
159.576
156.281
154.983
155.029
155.898
157.229
158.857
161.304
165.369
171.529
179.865
189.917
200.226
212.503
225.571
239.289
253.936
269.785
287.152
306.372
328.006
353.527
388.741
425.215
456.776
508.288
722.273
811.908
831.84
838.293
528.89
541.115
573.336
571.317
574.202
578.054
579.909
581.744
582.734
583.571
583.915
583.987
583.714
583.074
581.991
580.354
578.007
574.813
571.629
572.759
590.229
646.759
728.808
600.137
523.868
454.527
398.435
345.372
306.877
276.195
250.417
224.148
202.577
184.203
168.755
155.462
143.696
133.174
123.352
114.142
105.524
97.9032
91.6712
87.1158
84.2557
82.8468
82.4596
82.7272
83.7585
86.1516
90.3897
96.7234
105.167
115.572
127.811
141.984
158.598
178.549
202.939
232.927
270.057
317.169
378.451
456.977
509.632
535.381
551.258
562.26
567.601
570.619
572.176
572.942
573.334
573.584
573.754
573.89
574.016
574.135
574.256
574.379
574.503
574.619
574.711
574.764
574.766
574.72
574.649
574.558
574.481
574.428
574.42
574.474
269.84
266.002
263.982
263.015
262.974
262.435
253.089
251.544
250.007
247.311
243.842
239.328
234.608
231.379
233.686
231.436
229.267
231.762
234.317
237.55
236.075
238.351
240.509
240.696
239.143
235.899
231.355
225.642
218.83
211.786
206.064
203.964
202.597
202.217
203.614
207.138
213.23
221.131
226.83
236.134
246.223
255.578
263.714
269.574
272.234
271.192
266.598
259.185
250.005
240.314
233.05
225.349
210.847
202.017
193.88
187.599
184.332
183.495
183.521
184.812
187.284
191.735
198.572
207.28
215.297
226.459
238.972
252.607
268.064
286.592
311.512
346.217
350.848
379.602
414.398
436.195
449.395
455.396
453.921
444.961
428.414
404.058
372.433
340.606
318.233
298.323
279.919
263.398
248.644
235.498
223.952
214.858
205.997
194.84
185.491
177.203
169.361
162.873
158.299
155.785
155.172
155.588
156.683
158.129
159.987
163.008
167.869
174.891
183.932
194.171
205.386
218.079
231.416
245.515
260.703
277.334
295.889
317.001
341.691
372.817
414.491
456.068
505.85
625.055
798.005
842.078
821.244
633.928
514.549
565.167
572.294
571.577
576.211
578.912
580.682
582.237
583.084
583.725
583.887
583.762
583.235
582.269
580.74
578.499
575.373
571.265
566.635
563.703
568.103
586.548
600.621
525.442
469.995
413.016
357.098
315.899
284.458
257.943
235.475
210.462
191.634
175.143
161.107
148.878
137.963
127.967
118.523
109.676
101.608
94.7863
89.5365
86.0047
84.0442
83.2848
83.2931
83.9192
85.6052
88.9301
94.2551
101.695
111.158
122.46
135.524
150.556
168.152
189.34
215.648
249.197
292.267
346.781
413.847
484.45
522.673
542.312
557.055
564.711
569.184
571.444
572.672
573.252
573.585
573.8
573.954
574.085
574.208
574.326
574.448
574.571
574.69
574.791
574.856
574.873
574.842
574.782
574.702
574.622
574.56
574.528
574.558
574.648
269.905
266.123
264.159
263.267
263.241
262.549
252.708
251.656
249.897
247.152
243.57
238.984
234.256
230.463
233.76
231.36
227.817
232.312
234.81
237.999
236.013
238.764
240.604
240.578
238.802
235.379
230.709
224.854
217.958
211.019
205.619
204.026
202.584
202.476
204.11
207.991
214.401
222.423
227.968
237.651
247.566
256.718
264.483
269.806
271.822
270.135
265.006
257.228
247.858
238.261
232.316
221.37
208.876
200.322
192.432
186.735
184.257
183.532
183.843
185.368
188.21
193.204
200.583
209.691
217.664
229.351
242.082
256.104
272.004
290.393
312.874
345.582
354.271
388.575
419.947
438.98
450.181
453.991
450.228
438.87
419.708
392.587
359.142
331.812
310.864
291.463
273.742
257.886
243.705
231.111
220.314
212.319
202.562
191.199
182.531
174.339
166.916
161.129
157.376
155.664
155.517
156.25
157.519
159.084
161.314
165.03
170.781
178.736
188.558
198.732
210.74
223.7
237.302
251.787
267.471
284.665
303.677
324.881
349.434
382.319
419.284
450.914
499.232
705.906
798.141
821.82
804.751
522.926
542.526
572.626
570.374
573.578
577.592
579.659
581.374
582.636
583.342
583.771
583.742
583.382
582.56
581.209
579.17
576.265
572.285
567.061
560.659
553.848
548.439
544.964
531.827
480.406
429.518
372.691
326.723
293.017
265.096
241.061
221.658
198.609
182.037
167.095
154.276
142.904
132.637
123.032
113.936
105.541
98.1684
92.2551
88.0212
85.4476
84.2448
83.9751
84.3025
85.4097
87.9024
92.2481
98.67
107.164
117.573
129.755
143.808
160.243
180.015
204.367
234.509
271.391
316.389
372.611
457.89
516.059
533.47
549.427
560.443
567.114
570.253
572.165
573.064
573.537
573.819
574.007
574.15
574.276
574.397
574.516
574.638
574.758
574.865
574.942
574.977
574.965
574.912
574.845
574.762
574.69
574.649
574.647
574.703
574.822
269.976
266.25
264.343
263.526
263.509
262.687
252.501
251.732
249.793
246.981
243.29
238.644
234.041
232.429
233.709
231.362
227.768
232.812
235.314
238.478
236.151
239.125
240.674
240.433
238.438
234.847
230.05
224.055
217.092
210.275
205.171
204.025
202.607
202.753
204.656
208.893
215.614
223.732
229.217
239.131
248.872
257.797
265.163
269.93
271.3
268.986
263.356
255.277
245.904
236.853
230.808
218.05
207.094
198.648
191.11
186.035
184.175
183.623
184.217
185.987
189.247
194.785
202.551
210.903
220.274
232.266
245.225
259.572
275.812
295.074
320.586
345.189
360.187
396.883
424.527
441.189
450.315
451.863
445.756
431.933
410.227
380.89
347.865
323.904
303.703
284.857
267.833
252.601
238.993
226.913
216.458
209.07
198.13
187.98
179.613
171.598
164.721
159.686
156.718
155.76
156.001
156.99
158.388
160.141
162.883
167.374
174.008
182.737
192.724
203.685
216.218
229.419
243.342
258.262
274.502
292.471
312.797
336.615
366.615
407.806
449.812
498.451
613.054
781.759
831.347
813.959
611.192
516.648
564.656
571.11
571.027
575.566
578.54
580.392
581.946
582.95
583.497
583.699
583.452
582.807
581.626
579.812
577.183
573.539
568.633
562.184
553.926
543.711
531.439
515.742
490.25
445.014
392.755
340.168
303.444
273.916
248.785
227.689
208.731
188.444
173.54
159.879
148.005
137.416
127.609
118.337
109.631
101.811
95.2604
90.3293
87.0902
85.3662
84.7548
84.8356
85.5183
87.2816
90.7007
96.1129
103.609
113.088
124.366
137.365
152.296
169.711
190.472
215.722
247.077
286.832
338.428
414.567
542.314
577.658
530.898
555.701
563.89
568.509
571.291
572.703
573.408
573.8
574.04
574.207
574.342
574.465
574.584
574.703
574.824
574.937
575.027
575.078
575.082
575.044
574.979
574.899
574.827
574.785
574.762
574.791
574.875
575.024
270.053
266.382
264.536
263.789
263.777
262.84
252.394
251.766
249.652
246.81
242.999
238.311
233.896
233.784
233.615
231.512
229.559
233.215
235.831
238.972
236.398
239.438
240.72
240.261
238.054
234.305
229.378
223.244
216.237
209.585
204.848
203.978
202.675
203.071
205.246
209.853
216.951
225.741
230.449
240.582
250.138
258.811
265.752
269.946
270.669
267.749
261.65
253.282
243.706
233.886
228.863
215.32
205.373
197.015
189.9
185.421
184.126
183.774
184.646
186.675
190.402
196.489
204.634
212.662
222.993
235.213
248.451
263.247
280.285
301.156
327.528
345.901
368.058
404.147
428.323
442.817
449.786
449.057
440.598
424.313
400.01
368.352
338.228
316.444
296.745
278.555
262.217
247.636
234.662
223.363
214.503
205.541
194.175
184.984
176.732
169.034
162.805
158.573
156.462
156.02
156.6
157.788
159.311
161.346
164.722
170.048
177.563
186.99
197.225
208.891
221.769
235.232
249.554
265.046
282.072
301.018
322.265
346.518
376.839
413.556
445.721
492.118
692.802
786.448
814.116
790.398
514.582
544.651
571.089
569.413
573.144
576.956
579.353
581.069
582.394
583.171
583.528
583.487
582.983
582.004
580.404
578.054
574.746
570.244
564.241
556.347
546.063
532.749
515.467
492.358
459.47
412.313
356.979
315.344
284.177
257.572
234.956
216.143
197.162
179.582
165.884
153.349
142.294
132.277
122.82
113.886
105.664
98.5585
92.9319
89.0003
86.678
85.6535
85.4804
85.8567
87.0295
89.5991
94.0276
100.516
109.039
119.435
131.555
145.471
161.641
180.949
204.627
234.065
270.577
315.77
374.175
477.542
553.951
578.567
543.936
559.22
566.075
569.9
572.07
573.147
573.718
574.042
574.25
574.401
574.53
574.65
574.769
574.889
575.005
575.103
575.167
575.187
575.162
575.104
575.038
574.97
574.911
574.864
574.861
574.921
575.041
575.208
270.139
266.519
264.737
264.058
264.046
263.002
252.351
251.795
249.591
246.61
242.704
237.988
233.778
234.667
233.516
231.685
230.677
233.598
236.363
239.482
236.695
239.709
240.741
240.063
237.648
233.752
228.692
222.425
215.395
208.908
204.406
203.947
202.785
203.445
205.882
210.853
218.155
225.384
231.871
241.989
251.36
259.756
266.246
269.853
269.934
266.429
259.893
251.275
241.755
234.249
226.998
212.884
203.686
195.443
188.797
184.825
184.13
183.982
185.125
187.442
191.665
198.241
206.626
214.808
225.762
238.203
251.764
267.048
284.794
306.431
332.005
348.409
376.644
410.294
431.441
443.826
448.573
445.51
434.598
415.656
388.639
355.942
329.869
309.244
290.034
272.506
256.815
242.745
230.2
219.325
211.976
201.774
190.679
182.072
173.935
166.701
161.203
157.787
156.414
156.425
157.291
158.636
160.297
162.783
166.902
173.136
181.559
191.695
201.941
214.262
227.368
241.11
255.8
271.718
289.189
308.649
330.967
358.393
398.196
441.014
488.586
603.724
766.368
816.353
800.07
606.272
513.22
565.553
569.397
570.362
575.097
577.971
580.117
581.642
582.726
583.286
583.423
583.116
582.305
580.926
578.822
575.834
571.735
566.258
559.037
549.566
537.116
520.653
498.699
469.046
428.574
375.831
329.101
295.089
267.155
242.72
221.893
205.187
187.036
171.728
159
147.33
137.016
127.396
118.253
109.722
102.109
95.8414
91.1944
88.2257
86.7047
86.2234
86.3599
87.0895
88.9231
92.412
97.889
105.42
114.892
126.116
139.011
153.783
170.984
191.451
216.231
246.74
285.241
336.47
419.428
548.786
633.544
624.285
539.798
563.594
567.872
571.015
572.676
573.537
573.995
574.27
574.451
574.592
574.715
574.834
574.953
575.07
575.176
575.255
575.294
575.29
575.248
575.188
575.111
575.035
574.985
574.982
575.028
575.113
575.244
575.427
270.231
266.662
264.946
264.33
264.313
263.168
252.336
251.763
249.355
246.434
242.398
237.67
233.652
235.215
233.455
231.93
231.44
233.99
236.909
240.029
237.008
239.945
240.736
239.84
237.225
233.189
227.992
221.598
214.568
208.267
203.998
203.926
202.92
203.612
206.576
211.89
219.338
225.598
233.363
243.351
252.537
260.628
266.644
269.652
269.099
265.036
258.105
249.309
239.978
233.692
224.852
210.709
202.018
193.961
187.884
184.882
184.135
184.257
185.645
188.311
193.072
200.245
209.337
217.033
228.589
241.238
255.14
270.844
289.002
310.744
335.486
352.913
384.945
415.462
433.957
444.2
446.659
441.217
427.834
406.389
377.3
345.274
322.241
302.228
283.58
266.732
251.665
238.249
226.506
217.258
208.385
197.355
187.571
179.19
171.276
164.622
159.89
157.25
156.575
156.959
158.053
159.521
161.409
164.462
169.369
176.452
185.565
195.84
206.997
219.74
233.099
247.243
262.509
279.258
297.942
319.152
343.751
374.156
412.731
448.252
501.294
678.528
776.983
810.114
792.94
510.654
542.892
571.115
567.886
572.654
576.435
578.871
580.798
582.101
582.944
583.274
583.157
582.545
581.368
579.523
576.844
573.142
568.159
561.561
552.881
541.453
526.343
506.261
479.449
443.581
396.572
344.327
307.143
277.488
252.031
229.915
211.694
194.764
178.307
164.608
152.64
141.847
132.036
122.73
113.93
105.906
99.0357
93.6959
90.0324
87.9411
87.0698
86.9761
87.3923
88.6199
91.2563
95.7429
102.276
110.814
121.19
133.255
147.073
163.056
182
205.039
233.544
268.855
312.2
367.626
478.983
593.63
646.484
686.396
525.441
570.564
568.653
571.977
573.178
573.876
574.248
574.484
574.645
574.777
574.897
575.015
575.133
575.244
575.335
575.389
575.399
575.365
575.299
575.225
575.16
575.123
575.099
575.092
575.118
575.231
575.404
575.592
270.329
266.811
265.164
264.607
264.578
263.333
252.342
251.766
249.4
246.2
242.091
237.362
233.533
235.53
233.416
232.116
232.029
234.396
237.432
240.399
237.353
240.146
240.707
239.592
236.784
232.615
227.28
220.766
213.767
207.739
204.715
203.86
203.103
204.135
207.311
212.955
220.521
226.255
234.857
244.672
253.665
261.423
266.943
269.343
268.166
263.57
256.263
247.262
237.97
232.422
220.81
208.863
200.355
192.572
187.082
184.867
184.179
184.592
186.225
189.276
194.571
202.17
210.641
219.512
231.449
244.324
258.588
274.722
293.336
315.2
338.588
358.233
392.672
419.766
435.843
443.893
444.049
436.225
420.319
396.183
364.679
336.234
314.971
295.419
277.414
261.248
246.792
233.924
222.788
214.763
205.005
193.521
184.629
176.358
168.812
162.839
158.918
157.093
156.89
157.594
158.87
160.46
162.71
166.451
172.241
180.249
190.122
200.274
212.247
225.237
238.825
253.288
268.925
286.052
305.016
326.277
351.153
385.692
425.016
465.379
540.682
756.724
799.862
785.962
613.394
509.287
564.387
568.987
569.082
574.68
577.43
579.712
581.364
582.441
583.033
583.115
582.709
581.749
580.143
577.756
574.403
569.859
563.828
555.912
545.549
531.931
513.905
489.851
457.604
414.786
362.237
319.811
288.585
261.706
238.4
218.223
201.786
185.356
170.63
158.12
146.863
136.738
127.283
118.278
109.898
102.51
96.4959
92.1271
89.3985
88.0608
87.6805
87.8751
88.6337
90.5264
94.075
99.595
107.151
116.609
127.766
140.537
155.099
171.997
192.101
216.511
246.574
284.323
334.674
420.016
554.342
643.907
662.839
575.53
545.951
571.389
569.755
572.735
573.608
574.171
574.485
574.687
574.834
574.961
575.079
575.196
575.31
575.41
575.48
575.507
575.491
575.444
575.393
575.337
575.278
575.214
575.175
575.224
575.36
575.506
575.652
575.844
270.434
266.965
265.388
264.886
264.839
263.495
252.352
251.71
249.114
245.996
241.776
237.058
233.397
235.707
233.405
232.237
232.52
234.828
238.016
241.161
237.636
240.321
240.651
239.32
236.328
232.03
226.553
219.933
212.992
207.263
205.073
203.802
203.318
204.616
208.098
214.084
221.829
227.172
236.328
245.953
254.739
262.138
267.142
268.93
267.144
262.047
254.424
245.397
236.592
230.743
217.667
207.145
198.722
191.319
186.474
184.802
184.284
184.981
186.862
190.363
196.213
204.218
212.267
222.152
234.334
247.475
262.128
278.731
297.849
319.758
342.053
365.272
399.481
423.326
437.117
442.922
440.707
430.381
411.804
385.051
353.066
328.252
307.906
288.846
271.5
255.939
241.998
229.613
219.056
211.717
200.635
190.23
181.743
173.628
166.585
161.352
158.227
157.146
157.342
158.308
159.724
161.493
164.245
168.748
175.401
184.159
194.181
205.108
217.641
230.883
244.859
259.906
276.366
294.645
315.29
339.346
369.769
410.959
453.217
508.566
642.961
774.632
806.73
796.661
511.025
540.193
570.164
567.25
571.602
576.032
578.346
580.445
581.811
582.656
582.981
582.783
582.041
580.672
578.56
575.551
571.438
565.965
558.775
549.364
537.003
520.649
498.867
469.775
431.183
382.063
334.188
299.939
272.085
247.468
226.185
207.928
192.386
177.054
163.786
152.039
141.565
131.89
122.728
114.07
106.225
99.5993
94.5189
91.1122
89.2229
88.4857
88.4573
88.9104
90.1796
92.8733