/*--------------------------------*- C++ -*----------------------------------*\
| =========                 |                                                 |
| \\      /  F ield         | OpenFOAM: The Open Source CFD Toolbox           |
|  \\    /   O peration     | Version:  v2012                                 |
|   \\  /    A nd           | Website:  www.openfoam.com                      |
|    \\/     M anipulation  |                                                 |
\*---------------------------------------------------------------------------*/
FoamFile
{
    version     2.0;
    format      ascii;
    class       volScalarField;
    location    "0";
    object      rho;
}
// * * * * * * * * * * * * * * * * * * * * * * * * * * * * * * * * * * * * * //

dimensions      [1 -3 0 0 0 0 0];


internalField   nonuniform List<scalar> 
97664
(
1.32071
1.31954
1.31919
1.31901
1.31951
1.32056
1.32173
1.32266
1.32322
1.32351
1.32355
1.32322
1.32195
1.32013
1.31851
1.31746
1.31678
1.31637
1.31643
1.31752
1.31917
1.32078
1.3221
1.32313
1.3238
1.32418
1.32438
1.3244
1.32419
1.32303
1.32073
1.31798
1.31573
1.31438
1.31353
1.31297
1.31298
1.31431
1.31638
1.31839
1.31997
1.32111
1.32195
1.32256
1.323
1.32335
1.32368
1.324
1.32431
1.32456
1.32471
1.32478
1.32474
1.32457
1.32356
1.32119
1.31772
1.31403
1.31099
1.30905
1.30803
1.30727
1.30694
1.30773
1.30993
1.31258
1.31494
1.31672
1.31792
1.31871
1.31929
1.31979
1.32027
1.32077
1.32127
1.32175
1.32216
1.32246
1.32266
1.32279
1.32287
1.32293
1.32299
1.32308
1.32321
1.32339
1.32361
1.32383
1.32401
1.32414
1.32421
1.32423
1.32421
1.32419
1.32413
1.32403
1.32362
1.32252
1.32038
1.31715
1.3131
1.30878
1.30481
1.30167
1.2996
1.29845
1.29759
1.2972
1.29719
1.29879
1.30174
1.30541
1.30907
1.31225
1.31469
1.31639
1.31744
1.31801
1.31827
1.31838
1.31844
1.31846
1.31845
1.31844
1.31844
1.31846
1.31851
1.31869
1.31903
1.31948
1.31996
1.3204
1.32076
1.32103
1.32122
1.32134
1.32141
1.32145
1.32146
1.32147
1.32147
1.32147
1.32148
1.32151
1.32158
1.32169
1.32184
1.32201
1.32219
1.32235
1.3225
1.32263
1.32274
1.32283
1.32291
1.32297
1.32302
1.32306
1.32307
1.32305
1.32303
1.32299
1.32296
1.32293
1.32289
1.32283
1.32276
1.32262
1.32232
1.32161
1.32009
1.31724
1.31263
1.30623
1.29873
1.29128
1.28514
1.28099
1.27851
1.27685
1.2764
1.27707
1.2811
1.28796
1.29625
1.30437
1.31096
1.31542
1.31789
1.31889
1.31903
1.31887
1.31856
1.31804
1.31737
1.31665
1.31597
1.31537
1.31486
1.31439
1.31397
1.31363
1.31334
1.31312
1.31298
1.3129
1.31283
1.31276
1.31269
1.31259
1.31246
1.3123
1.31212
1.31194
1.31175
1.31157
1.31134
1.31108
1.31063
1.3098
1.32051
1.31941
1.31914
1.31901
1.3196
1.32068
1.32184
1.32273
1.32324
1.32353
1.32352
1.32312
1.32176
1.31994
1.31838
1.31739
1.31673
1.31636
1.31651
1.3177
1.31937
1.32095
1.32224
1.32323
1.32386
1.3242
1.3244
1.32438
1.3241
1.32277
1.32035
1.31763
1.31551
1.31427
1.31344
1.31296
1.31311
1.31462
1.31672
1.31868
1.32019
1.32127
1.32207
1.32264
1.32307
1.32341
1.32374
1.32406
1.32437
1.32461
1.32472
1.32479
1.32472
1.32445
1.32317
1.32051
1.3169
1.31329
1.31049
1.30882
1.30788
1.30722
1.30701
1.30821
1.31059
1.31322
1.31545
1.31707
1.31816
1.31887
1.31944
1.31993
1.32042
1.32092
1.32143
1.32189
1.32226
1.32253
1.32271
1.32282
1.3229
1.32296
1.32303
1.32313
1.32327
1.32347
1.32369
1.3239
1.32407
1.32418
1.32423
1.32423
1.3242
1.32418
1.32412
1.32394
1.32331
1.32184
1.31926
1.31565
1.31142
1.30717
1.30349
1.30078
1.29912
1.29818
1.29745
1.29716
1.29771
1.29994
1.30328
1.30702
1.31052
1.31339
1.31551
1.31692
1.31774
1.31815
1.31833
1.31842
1.31846
1.31847
1.31845
1.31844
1.31846
1.31849
1.31858
1.31885
1.31925
1.31972
1.32019
1.32059
1.32091
1.32114
1.3213
1.32139
1.32144
1.32147
1.32148
1.32148
1.32148
1.32148
1.3215
1.32154
1.32163
1.32176
1.32193
1.3221
1.32228
1.32244
1.32258
1.32269
1.32279
1.32288
1.32295
1.323
1.32304
1.32306
1.32305
1.32303
1.32299
1.32296
1.32293
1.32289
1.32284
1.32278
1.32267
1.32245
1.32193
1.32078
1.31851
1.31462
1.30891
1.30177
1.29421
1.28748
1.28261
1.27968
1.27747
1.27656
1.27672
1.27943
1.28517
1.29301
1.30129
1.30855
1.31385
1.31704
1.31856
1.31898
1.3189
1.31868
1.31824
1.31764
1.31692
1.31623
1.31561
1.31508
1.31462
1.31416
1.31383
1.31354
1.31331
1.31317
1.3131
1.31305
1.31301
1.31296
1.3129
1.3128
1.31268
1.31253
1.31239
1.31224
1.31211
1.31193
1.3117
1.31139
1.31072
1.31011
1.32031
1.31929
1.31909
1.31901
1.31968
1.3208
1.32194
1.32279
1.32326
1.32355
1.3235
1.32302
1.32157
1.31975
1.31826
1.31733
1.31669
1.31636
1.31661
1.31788
1.31957
1.32112
1.32238
1.32333
1.32392
1.32422
1.32442
1.32436
1.32399
1.32248
1.31997
1.31729
1.3153
1.31417
1.31337
1.31295
1.31328
1.31494
1.31705
1.31896
1.32039
1.32143
1.32219
1.32273
1.32313
1.32348
1.3238
1.32413
1.32443
1.32464
1.32473
1.32479
1.32471
1.32429
1.3227
1.31977
1.31608
1.3126
1.31005
1.30863
1.30774
1.30718
1.30718
1.30875
1.31126
1.31382
1.31591
1.31739
1.31837
1.31904
1.31958
1.32008
1.32057
1.32108
1.32157
1.32201
1.32236
1.3226
1.32276
1.32286
1.32293
1.32299
1.32306
1.32318
1.32334
1.32355
1.32377
1.32397
1.32412
1.32421
1.32424
1.32423
1.32421
1.32416
1.32409
1.32379
1.32287
1.32098
1.31797
1.31405
1.30973
1.30566
1.30234
1.30007
1.29878
1.29794
1.29737
1.29726
1.29854
1.3013
1.30489
1.30858
1.31184
1.3144
1.3162
1.31733
1.31796
1.31825
1.31838
1.31844
1.31846
1.31847
1.31845
1.31846
1.31848
1.31853
1.3187
1.31904
1.31949
1.31996
1.3204
1.32077
1.32104
1.32124
1.32136
1.32143
1.32147
1.32148
1.32149
1.32148
1.32148
1.32149
1.32152
1.32159
1.3217
1.32185
1.32202
1.3222
1.32236
1.32251
1.32264
1.32275
1.32284
1.32291
1.32297
1.32302
1.32304
1.32305
1.32303
1.323
1.32296
1.32293
1.32289
1.32285
1.32279
1.32271
1.32254
1.32217
1.32131
1.31954
1.31634
1.31136
1.30475
1.29728
1.29017
1.28456
1.28095
1.27866
1.27713
1.27689
1.27816
1.28275
1.28982
1.29804
1.30577
1.31188
1.31588
1.31801
1.31882
1.31891
1.31874
1.31841
1.31788
1.3172
1.3165
1.31585
1.3153
1.31484
1.31439
1.31404
1.31374
1.31349
1.31335
1.31328
1.31325
1.31323
1.3132
1.31316
1.3131
1.31301
1.31289
1.31278
1.31267
1.31257
1.31244
1.31226
1.31198
1.31142
1.31091
1.31026
1.32011
1.31917
1.31905
1.31902
1.31977
1.32091
1.32204
1.32285
1.32328
1.32355
1.32348
1.3229
1.32138
1.31958
1.31815
1.31726
1.31666
1.31636
1.31672
1.31807
1.31976
1.32128
1.32251
1.32342
1.32397
1.32424
1.32443
1.32434
1.32385
1.32218
1.31958
1.31697
1.31512
1.31407
1.31332
1.31295
1.31349
1.31526
1.31738
1.31922
1.32058
1.32157
1.32229
1.32281
1.3232
1.32354
1.32387
1.32419
1.32448
1.32467
1.32475
1.32478
1.32468
1.32406
1.32217
1.319
1.31528
1.31197
1.30969
1.30847
1.30759
1.30716
1.30746
1.30933
1.31192
1.3144
1.31633
1.31768
1.31856
1.31919
1.31973
1.32022
1.32072
1.32123
1.32172
1.32213
1.32244
1.32266
1.3228
1.32289
1.32295
1.32302
1.3231
1.32323
1.32342
1.32363
1.32385
1.32404
1.32417
1.32423
1.32425
1.32423
1.32421
1.32415
1.32403
1.32354
1.32228
1.31995
1.31653
1.31239
1.3081
1.30428
1.30136
1.29951
1.2985
1.29773
1.29739
1.29764
1.29959
1.30279
1.30649
1.31004
1.31302
1.31525
1.31675
1.31765
1.31811
1.31832
1.31841
1.31846
1.31847
1.31847
1.31846
1.31848
1.31851
1.3186
1.31885
1.31925
1.31973
1.32019
1.3206
1.32092
1.32116
1.32131
1.32141
1.32146
1.32149
1.32149
1.32149
1.32149
1.32149
1.32151
1.32156
1.32165
1.32178
1.32194
1.32212
1.32229
1.32245
1.32258
1.3227
1.3228
1.32288
1.32295
1.323
1.32303
1.32304
1.32303
1.32301
1.32296
1.32293
1.32289
1.32286
1.32281
1.32274
1.32261
1.32234
1.32171
1.32035
1.31778
1.31354
1.30757
1.30038
1.29305
1.28675
1.28237
1.27982
1.27792
1.27731
1.2775
1.28074
1.28685
1.29469
1.30272
1.30953
1.31438
1.31723
1.31854
1.31888
1.31876
1.31858
1.3181
1.31748
1.31677
1.31611
1.31553
1.31505
1.31462
1.31422
1.31392
1.31368
1.31351
1.31343
1.31341
1.31341
1.3134
1.31339
1.31335
1.31329
1.31321
1.31312
1.31304
1.31296
1.31288
1.31274
1.31251
1.31209
1.31159
1.31103
1.31042
1.31991
1.31905
1.319
1.31904
1.31987
1.32103
1.32213
1.32291
1.32331
1.32355
1.32346
1.32277
1.32119
1.31941
1.31804
1.3172
1.31664
1.31637
1.31685
1.31826
1.31995
1.32144
1.32264
1.3235
1.32402
1.32426
1.32442
1.32432
1.32369
1.32186
1.3192
1.31667
1.31495
1.31397
1.31328
1.31296
1.31372
1.3156
1.3177
1.31947
1.32077
1.32171
1.32239
1.32288
1.32327
1.3236
1.32393
1.32426
1.32453
1.3247
1.32477
1.32476
1.32463
1.32377
1.32158
1.31821
1.31451
1.3114
1.30937
1.30831
1.30751
1.30717
1.30782
1.30995
1.31257
1.31493
1.31672
1.31794
1.31874
1.31935
1.31987
1.32037
1.32088
1.32138
1.32185
1.32224
1.32252
1.32271
1.32284
1.32292
1.32298
1.32305
1.32315
1.3233
1.32349
1.32372
1.32393
1.32409
1.3242
1.32425
1.32425
1.32423
1.32419
1.32413
1.32392
1.32318
1.32153
1.31875
1.31499
1.31072
1.30655
1.30306
1.30059
1.29913
1.29824
1.29761
1.29739
1.29834
1.30086
1.30435
1.30805
1.31139
1.31406
1.31597
1.31719
1.31789
1.31822
1.31837
1.31844
1.31848
1.31848
1.31847
1.31848
1.31849
1.31854
1.31871
1.31904
1.31949
1.31997
1.32041
1.32078
1.32106
1.32125
1.32138
1.32145
1.32149
1.3215
1.3215
1.3215
1.3215
1.32151
1.32154
1.3216
1.32171
1.32186
1.32203
1.32221
1.32237
1.32252
1.32265
1.32276
1.32284
1.32292
1.32297
1.32301
1.32303
1.32303
1.32301
1.32297
1.32293
1.3229
1.32286
1.32282
1.32276
1.32266
1.32246
1.32201
1.32099
1.31896
1.31544
1.31017
1.30342
1.29607
1.28931
1.28417
1.281
1.27889
1.27739
1.27745
1.27924
1.28421
1.29141
1.29945
1.30683
1.31251
1.31615
1.31805
1.31874
1.31879
1.31861
1.31828
1.31775
1.31706
1.31638
1.31577
1.31526
1.31484
1.31441
1.31411
1.31385
1.31366
1.31357
1.31355
1.31356
1.31358
1.31358
1.31357
1.31354
1.31348
1.31341
1.31336
1.31331
1.31326
1.31317
1.31298
1.31269
1.3122
1.31172
1.31115
1.31056
1.31971
1.31894
1.31896
1.31907
1.31996
1.32114
1.32222
1.32296
1.32333
1.32354
1.32343
1.32263
1.321
1.31924
1.31794
1.31714
1.31661
1.31639
1.31698
1.31846
1.32014
1.3216
1.32276
1.32358
1.32406
1.32428
1.32441
1.32429
1.3235
1.32152
1.31883
1.3164
1.3148
1.31388
1.31324
1.31301
1.31398
1.31593
1.31801
1.31971
1.32094
1.32184
1.32249
1.32296
1.32333
1.32367
1.324
1.32432
1.32457
1.32471
1.32479
1.32474
1.32454
1.32342
1.32093
1.3174
1.31377
1.31089
1.30913
1.30816
1.30747
1.30721
1.30828
1.31059
1.31319
1.31543
1.31707
1.31818
1.31892
1.3195
1.32002
1.32052
1.32103
1.32153
1.32198
1.32234
1.32259
1.32276
1.32287
1.32294
1.32301
1.32309
1.3232
1.32336
1.32357
1.3238
1.32399
1.32414
1.32423
1.32426
1.32425
1.32423
1.32418
1.3241
1.32373
1.32269
1.3206
1.31741
1.31338
1.30907
1.30512
1.30201
1.29997
1.29883
1.29799
1.29761
1.29762
1.29929
1.30228
1.30593
1.30953
1.31261
1.31495
1.31656
1.31754
1.31806
1.3183
1.31841
1.31846
1.31848
1.31849
1.31848
1.3185
1.31853
1.31861
1.31886
1.31925
1.31973
1.3202
1.32061
1.32093
1.32117
1.32133
1.32143
1.32148
1.3215
1.32151
1.32151
1.32151
1.32151
1.32153
1.32157
1.32166
1.32179
1.32195
1.32213
1.3223
1.32246
1.32259
1.32271
1.32281
1.32289
1.32295
1.32299
1.32302
1.32303
1.32301
1.32298
1.32294
1.3229
1.32286
1.32283
1.32278
1.3227
1.32255
1.32222
1.32148
1.31991
1.31705
1.31252
1.30635
1.29918
1.29211
1.28626
1.28229
1.27999
1.27832
1.27783
1.27833
1.28196
1.2883
1.29609
1.30381
1.31024
1.31473
1.31733
1.31849
1.31875
1.31865
1.31845
1.31798
1.31735
1.31666
1.31603
1.31549
1.31504
1.31465
1.31429
1.31402
1.3138
1.31369
1.31367
1.31369
1.31372
1.31374
1.31375
1.31374
1.31371
1.31367
1.31364
1.31361
1.31359
1.31353
1.3134
1.31317
1.31273
1.31231
1.3118
1.31127
1.31073
1.31952
1.31882
1.31892
1.3191
1.32006
1.32125
1.3223
1.32301
1.32335
1.32353
1.32339
1.32248
1.32081
1.31908
1.31785
1.31709
1.31659
1.31642
1.31713
1.31865
1.32032
1.32175
1.32288
1.32365
1.32409
1.32431
1.32439
1.32424
1.32329
1.32117
1.31847
1.31614
1.31468
1.31379
1.3132
1.31309
1.31425
1.31627
1.31831
1.31994
1.32111
1.32197
1.32258
1.32303
1.32339
1.32373
1.32406
1.32438
1.32461
1.32472
1.32481
1.32473
1.3244
1.323
1.32023
1.3166
1.31307
1.31044
1.30893
1.30802
1.30741
1.30735
1.30879
1.31123
1.31379
1.31588
1.31739
1.31839
1.31908
1.31965
1.32017
1.32067
1.32118
1.32167
1.3221
1.32243
1.32266
1.3228
1.3229
1.32297
1.32304
1.32313
1.32326
1.32344
1.32365
1.32387
1.32406
1.32419
1.32425
1.32426
1.32424
1.32423
1.32417
1.32402
1.32345
1.32203
1.31951
1.31594
1.31173
1.3075
1.30384
1.30115
1.29951
1.29857
1.29785
1.29757
1.29818
1.30045
1.3038
1.30749
1.31091
1.31369
1.31571
1.31704
1.31781
1.31819
1.31836
1.31844
1.31848
1.31849
1.31849
1.3185
1.31851
1.31856
1.31872
1.31904
1.31948
1.31996
1.32041
1.32078
1.32107
1.32127
1.32139
1.32147
1.3215
1.32152
1.32152
1.32152
1.32151
1.32152
1.32155
1.32162
1.32173
1.32188
1.32205
1.32222
1.32239
1.32253
1.32266
1.32276
1.32285
1.32292
1.32297
1.32301
1.32302
1.32302
1.32299
1.32295
1.32291
1.32287
1.32283
1.32279
1.32273
1.32261
1.32238
1.32184
1.32066
1.31838
1.31457
1.30907
1.30226
1.29507
1.28866
1.28394
1.28108
1.2791
1.2779
1.27804
1.2803
1.28547
1.29274
1.30058
1.30762
1.31294
1.31631
1.31804
1.31864
1.31867
1.3185
1.31817
1.31763
1.31695
1.31629
1.31572
1.31525
1.31485
1.31446
1.31418
1.31396
1.31382
1.31377
1.31379
1.31384
1.31388
1.31391
1.31392
1.31391
1.31389
1.31387
1.31386
1.31386
1.31384
1.31376
1.31357
1.31323
1.31283
1.31238
1.31189
1.31138
1.31097
1.31932
1.31871
1.31888
1.31914
1.32016
1.32135
1.32238
1.32305
1.32337
1.32352
1.32333
1.32233
1.32061
1.31893
1.31777
1.31703
1.31657
1.31646
1.31729
1.31885
1.3205
1.3219
1.32299
1.32372
1.32412
1.32433
1.32437
1.32418
1.32306
1.32081
1.31811
1.3159
1.31456
1.31372
1.31317
1.31319
1.31454
1.31661
1.3186
1.32016
1.32127
1.32209
1.32267
1.3231
1.32346
1.3238
1.32413
1.32443
1.32465
1.32474
1.3248
1.32471
1.32422
1.32252
1.31949
1.31581
1.31243
1.31005
1.30877
1.30787
1.30741
1.30758
1.30934
1.31188
1.31435
1.3163
1.31768
1.31859
1.31924
1.3198
1.32032
1.32083
1.32133
1.32181
1.32221
1.32251
1.32271
1.32284
1.32293
1.323
1.32307
1.32317
1.32332
1.32351
1.32373
1.32394
1.32411
1.32422
1.32427
1.32427
1.32425
1.32421
1.32415
1.32389
1.32304
1.32122
1.31826
1.31438
1.31009
1.30602
1.30271
1.30046
1.29918
1.29834
1.29778
1.29769
1.29901
1.30179
1.30536
1.30899
1.31216
1.31463
1.31635
1.31742
1.31801
1.31828
1.3184
1.31846
1.31849
1.3185
1.3185
1.31852
1.31854
1.31862
1.31886
1.31925
1.31972
1.3202
1.32061
1.32094
1.32118
1.32134
1.32144
1.3215
1.32152
1.32153
1.32153
1.32152
1.32152
1.32154
1.32159
1.32168
1.32181
1.32197
1.32214
1.32231
1.32247
1.3226
1.32272
1.32281
1.32289
1.32295
1.32299
1.32301
1.32302
1.323
1.32296
1.32292
1.32288
1.32284
1.3228
1.32275
1.32266
1.32249
1.3221
1.32123
1.31946
1.31634
1.31155
1.30525
1.29816
1.29137
1.28592
1.28233
1.28015
1.2787
1.27827
1.27912
1.2831
1.28952
1.29722
1.30467
1.31076
1.31496
1.31736
1.31842
1.31864
1.31855
1.31832
1.31787
1.31724
1.31657
1.31596
1.31546
1.31504
1.31467
1.31435
1.31411
1.31393
1.31386
1.31388
1.31393
1.31399
1.31403
1.31406
1.31408
1.31408
1.31407
1.31408
1.3141
1.31411
1.31407
1.31393
1.3137
1.3133
1.31291
1.31245
1.31197
1.31152
1.31126
1.31913
1.31861
1.31884
1.31919
1.32026
1.32146
1.32245
1.32308
1.32339
1.3235
1.32327
1.32217
1.32042
1.31879
1.31769
1.31698
1.31655
1.31651
1.31745
1.31905
1.32068
1.32204
1.32309
1.32378
1.32415
1.32436
1.32435
1.3241
1.32281
1.32045
1.31777
1.31568
1.31446
1.31363
1.31316
1.31333
1.31484
1.31694
1.31888
1.32036
1.32142
1.3222
1.32275
1.32317
1.32352
1.32386
1.32419
1.32448
1.32468
1.32476
1.32478
1.32467
1.32398
1.32197
1.31873
1.31504
1.31185
1.30973
1.30861
1.30777
1.3074
1.3079
1.30993
1.31251
1.31488
1.31669
1.31794
1.31877
1.3194
1.31995
1.32047
1.32098
1.32148
1.32194
1.32231
1.32258
1.32276
1.32288
1.32296
1.32303
1.32311
1.32322
1.32338
1.32359
1.32381
1.32401
1.32416
1.32425
1.32428
1.32426
1.32425
1.3242
1.3241
1.32368
1.32249
1.32023
1.31688
1.31276
1.30849
1.30467
1.30176
1.29992
1.29891
1.29813
1.29779
1.29808
1.30006
1.30325
1.30691
1.31039
1.31328
1.31543
1.31686
1.31771
1.31815
1.31835
1.31843
1.31849
1.3185
1.31851
1.31852
1.31853
1.31858
1.31872
1.31904
1.31948
1.31996
1.32041
1.32079
1.32108
1.32128
1.32141
1.32148
1.32152
1.32154
1.32154
1.32153
1.32153
1.32154
1.32157
1.32163
1.32174
1.32189
1.32206
1.32223
1.3224
1.32254
1.32267
1.32277
1.32286
1.32293
1.32298
1.32301
1.32302
1.323
1.32298
1.32294
1.32289
1.32285
1.32281
1.32277
1.3227
1.32257
1.32228
1.32165
1.32031
1.31781
1.31375
1.30807
1.30125
1.29425
1.28817
1.28384
1.28126
1.27935
1.27851
1.27861
1.28123
1.28661
1.29383
1.30148
1.30821
1.31324
1.31639
1.318
1.31854
1.31855
1.3184
1.31806
1.31752
1.31685
1.31622
1.31568
1.31524
1.31487
1.31451
1.31425
1.31405
1.31395
1.31395
1.314
1.31407
1.31413
1.31418
1.31421
1.31423
1.31424
1.31427
1.31431
1.31433
1.31433
1.31425
1.31406
1.31372
1.31337
1.31295
1.31252
1.31207
1.31176
1.31158
1.31894
1.31852
1.3188
1.31924
1.32035
1.32156
1.32252
1.32311
1.32341
1.32348
1.3232
1.322
1.32024
1.31866
1.31761
1.31694
1.31654
1.31657
1.31762
1.31925
1.32085
1.32218
1.3232
1.32384
1.32417
1.32438
1.32433
1.32399
1.32254
1.32008
1.31744
1.31548
1.31436
1.31357
1.31315
1.3135
1.31516
1.31727
1.31915
1.32055
1.32157
1.3223
1.32283
1.32324
1.32359
1.32393
1.32426
1.32453
1.3247
1.32477
1.32476
1.32461
1.32367
1.32136
1.31795
1.3143
1.31132
1.30946
1.30846
1.30773
1.30741
1.30832
1.31054
1.31312
1.31537
1.31704
1.31818
1.31895
1.31956
1.3201
1.32062
1.32113
1.32163
1.32206
1.3224
1.32265
1.32281
1.32291
1.32299
1.32306
1.32315
1.32327
1.32345
1.32367
1.32389
1.32407
1.3242
1.32427
1.32428
1.32426
1.32425
1.32419
1.32401
1.32335
1.32178
1.31909
1.31538
1.31113
1.30698
1.30348
1.301
1.29954
1.29865
1.29803
1.2978
1.29877
1.3013
1.30477
1.30842
1.31168
1.31427
1.31611
1.31728
1.31793
1.31825
1.31839
1.31846
1.3185
1.31851
1.31852
1.31854
1.31856
1.31864
1.31886
1.31924
1.31972
1.32019
1.32061
1.32095
1.32119
1.32136
1.32146
1.32152
1.32154
1.32155
1.32155
1.32154
1.32154
1.32156
1.3216
1.32169
1.32182
1.32198
1.32215
1.32232
1.32248
1.32262
1.32273
1.32282
1.3229
1.32296
1.32299
1.32301
1.32301
1.32299
1.32295
1.3229
1.32286
1.32282
1.32278
1.32273
1.32263
1.32242
1.32196
1.32096
1.319
1.31565
1.31065
1.30427
1.29729
1.29077
1.28567
1.28241
1.2804
1.27897
1.27874
1.27988
1.28411
1.29059
1.29813
1.30533
1.31113
1.3151
1.31735
1.31833
1.31853
1.31845
1.31821
1.31777
1.31715
1.31649
1.31591
1.31544
1.31505
1.3147
1.3144
1.31419
1.31405
1.31401
1.31406
1.31414
1.31421
1.31428
1.31433
1.31436
1.31439
1.31442
1.31447
1.31452
1.31455
1.31451
1.31437
1.31411
1.31378
1.31341
1.313
1.31257
1.31222
1.312
1.31192
1.31874
1.31844
1.31876
1.3193
1.32045
1.32165
1.32258
1.32313
1.32343
1.32346
1.32311
1.32182
1.32005
1.31853
1.31755
1.3169
1.31653
1.31665
1.3178
1.31944
1.32102
1.32232
1.32329
1.32389
1.32418
1.32439
1.32431
1.32386
1.32224
1.31971
1.31714
1.3153
1.31426
1.31352
1.31315
1.3137
1.31548
1.31758
1.3194
1.32074
1.3217
1.32241
1.32291
1.3233
1.32365
1.32399
1.32432
1.32457
1.32471
1.3248
1.32475
1.32451
1.3233
1.32071
1.31716
1.3136
1.31086
1.30924
1.30832
1.30767
1.30751
1.3088
1.31117
1.31371
1.31583
1.31736
1.3184
1.31912
1.31971
1.32025
1.32077
1.32128
1.32176
1.32217
1.32249
1.32271
1.32285
1.32295
1.32302
1.32309
1.32319
1.32333
1.32353
1.32375
1.32396
1.32413
1.32424
1.32428
1.32428
1.32427
1.32423
1.32416
1.32386
1.3229
1.32091
1.31779
1.31381
1.30952
1.30557
1.30245
1.30039
1.29925
1.29841
1.29802
1.29804
1.29971
1.30269
1.30631
1.30984
1.31285
1.31512
1.31667
1.3176
1.3181
1.31833
1.31843
1.31848
1.31851
1.31853
1.31853
1.31855
1.3186
1.31873
1.31903
1.31947
1.31996
1.32041
1.32079
1.32109
1.32129
1.32142
1.3215
1.32154
1.32155
1.32156
1.32155
1.32155
1.32155
1.32158
1.32165
1.32176
1.3219
1.32207
1.32225
1.32241
1.32256
1.32268
1.32278
1.32287
1.32293
1.32298
1.323
1.32301
1.323
1.32296
1.32292
1.32287
1.32283
1.32279
1.32275
1.32268
1.32253
1.32219
1.32146
1.31996
1.31724
1.31296
1.30715
1.30036
1.29357
1.2878
1.2838
1.28145
1.27974
1.2791
1.2792
1.28208
1.2876
1.29476
1.30219
1.30865
1.31344
1.31642
1.31793
1.31844
1.31844
1.31831
1.31797
1.31743
1.31678
1.31616
1.31565
1.31524
1.31489
1.31455
1.31432
1.31415
1.31407
1.3141
1.31418
1.31427
1.31435
1.31441
1.31446
1.31451
1.31455
1.31461
1.31468
1.31474
1.31474
1.31465
1.31447
1.31414
1.31383
1.31344
1.31304
1.31265
1.31241
1.31228
1.3123
1.31855
1.31836
1.31873
1.31936
1.32055
1.32174
1.32264
1.32315
1.32344
1.32344
1.32301
1.32164
1.31988
1.31841
1.31748
1.31686
1.31653
1.31674
1.31797
1.31964
1.32119
1.32245
1.32338
1.32394
1.32421
1.32439
1.32429
1.32371
1.32194
1.31934
1.31685
1.31514
1.31416
1.31348
1.31317
1.31393
1.3158
1.31789
1.31964
1.32091
1.32184
1.3225
1.32298
1.32337
1.32372
1.32406
1.32438
1.32461
1.32473
1.32481
1.32473
1.32436
1.32287
1.32001
1.31638
1.31294
1.31045
1.30907
1.30818
1.30765
1.3077
1.30932
1.3118
1.31427
1.31625
1.31765
1.3186
1.31928
1.31987
1.3204
1.32092
1.32143
1.32189
1.32228
1.32256
1.32276
1.32289
1.32298
1.32305
1.32313
1.32324
1.3234
1.3236
1.32383
1.32403
1.32418
1.32427
1.32429
1.32428
1.32427
1.32422
1.32411
1.32361
1.3223
1.31987
1.31638
1.3122
1.30798
1.30431
1.30159
1.29994
1.299
1.29827
1.29798
1.29858
1.30084
1.30417
1.30782
1.31117
1.31388
1.31584
1.31712
1.31785
1.31822
1.31838
1.31846
1.31851
1.31852
1.31854
1.31856
1.31858
1.31865
1.31886
1.31924
1.31971
1.32019
1.32061
1.32095
1.3212
1.32137
1.32148
1.32153
1.32156
1.32157
1.32156
1.32156
1.32156
1.32157
1.32162
1.3217
1.32183
1.32199
1.32217
1.32234
1.32249
1.32263
1.32274
1.32283
1.32291
1.32296
1.323
1.32301
1.323
1.32298
1.32294
1.32289
1.32284
1.3228
1.32276
1.32271
1.3226
1.32236
1.32183
1.3207
1.31855
1.31498
1.30982
1.3034
1.29654
1.29029
1.28553
1.28255
1.28065
1.2793
1.27921
1.28062
1.28499
1.29149
1.29888
1.30583
1.3114
1.31517
1.31731
1.31824
1.31843
1.31835
1.31812
1.31769
1.31707
1.31643
1.31588
1.31542
1.31506
1.31473
1.31445
1.31426
1.31415
1.31414
1.31421
1.31431
1.3144
1.31448
1.31454
1.3146
1.31465
1.31472
1.3148
1.31488
1.31492
1.31489
1.31474
1.31448
1.31418
1.31384
1.31348
1.31309
1.31281
1.31263
1.31259
1.31268
1.31835
1.3183
1.31869
1.31942
1.32065
1.32183
1.32269
1.32317
1.32345
1.32342
1.3229
1.32146
1.3197
1.3183
1.31742
1.31683
1.31653
1.31685
1.31816
1.31983
1.32135
1.32258
1.32346
1.32399
1.32423
1.32437
1.32427
1.32354
1.32161
1.31898
1.31657
1.31499
1.31407
1.31343
1.31321
1.31418
1.31613
1.31819
1.31987
1.32108
1.32196
1.32259
1.32305
1.32343
1.32378
1.32413
1.32443
1.32465
1.32475
1.3248
1.32471
1.32416
1.32237
1.31928
1.31561
1.31235
1.31011
1.30891
1.30804
1.30763
1.30798
1.30988
1.31242
1.31479
1.31664
1.31792
1.31879
1.31944
1.32002
1.32055
1.32107
1.32157
1.32202
1.32238
1.32263
1.32281
1.32292
1.323
1.32308
1.32316
1.32329
1.32347
1.32368
1.3239
1.32409
1.32422
1.32428
1.3243
1.32428
1.32426
1.3242
1.324
1.32325
1.32154
1.31868
1.31486
1.3106
1.30653
1.30319
1.30091
1.29961
1.29877
1.2982
1.29809
1.2994
1.30215
1.30569
1.30926
1.31238
1.31478
1.31645
1.31747
1.31804
1.31831
1.31842
1.31848
1.31852
1.31854
1.31855
1.31857
1.31862
1.31874
1.31903
1.31946
1.31995
1.32041
1.3208
1.32109
1.3213
1.32144
1.32152
1.32156
1.32157
1.32158
1.32157
1.32156
1.32157
1.3216
1.32166
1.32177
1.32192
1.32209
1.32226
1.32242
1.32257
1.32269
1.3228
1.32288
1.32294
1.32298
1.32301
1.32301
1.32299
1.32296
1.32291
1.32286
1.32282
1.32278
1.32273
1.32265
1.32248
1.3221
1.32126
1.3196
1.31669
1.31223
1.30632
1.29959
1.29301
1.28754
1.28381
1.28167
1.2801
1.27955
1.27982
1.28286
1.28845
1.29553
1.30275
1.30898
1.31357
1.31641
1.31786
1.31835
1.31834
1.31822
1.31788
1.31735
1.31671
1.31612
1.31563
1.31524
1.31491
1.31459
1.31438
1.31423
1.31418
1.31424
1.31433
1.31444
1.31453
1.3146
1.31467
1.31473
1.31481
1.3149
1.315
1.31507
1.31508
1.31498
1.31481
1.3145
1.31421
1.31386
1.3135
1.31317
1.31297
1.31288
1.31292
1.31306
1.31815
1.31825
1.31867
1.31949
1.32075
1.32191
1.32274
1.32319
1.32344
1.32339
1.32278
1.32128
1.31954
1.31819
1.31736
1.3168
1.31653
1.31697
1.31834
1.32002
1.32151
1.3227
1.32354
1.32402
1.32425
1.32436
1.32423
1.32334
1.32128
1.31863
1.31632
1.31487
1.31399
1.3134
1.31329
1.31445
1.31646
1.31849
1.32009
1.32124
1.32208
1.32268
1.32313
1.3235
1.32385
1.32419
1.32448
1.32468
1.32476
1.32479
1.32467
1.32391
1.32181
1.31852
1.31488
1.3118
1.30981
1.30876
1.30797
1.30763
1.30835
1.31047
1.31302
1.31528
1.31699
1.31816
1.31897
1.3196
1.32017
1.3207
1.32122
1.32171
1.32213
1.32246
1.3227
1.32285
1.32296
1.32303
1.32311
1.32321
1.32335
1.32354
1.32376
1.32397
1.32414
1.32425
1.3243
1.3243
1.32429
1.32425
1.32417
1.32382
1.32275
1.32061
1.31735
1.31329
1.30903
1.30519
1.30224
1.30037
1.29934
1.29856
1.29821
1.29847
1.30042
1.30358
1.3072
1.31063
1.31346
1.31556
1.31694
1.31775
1.31818
1.31837
1.31846
1.31851
1.31853
1.31855
1.31857
1.3186
1.31866
1.31886
1.31923
1.3197
1.32018
1.32061
1.32096
1.32121
1.32139
1.32149
1.32155
1.32158
1.32158
1.32158
1.32158
1.32157
1.32159
1.32163
1.32172
1.32185
1.32201
1.32218
1.32235
1.32251
1.32264
1.32275
1.32285
1.32292
1.32297
1.323
1.32301
1.323
1.32297
1.32293
1.32288
1.32283
1.32279
1.32275
1.3227
1.32257
1.3223
1.32169
1.32043
1.31811
1.31434
1.30905
1.30262
1.29591
1.28991
1.28545
1.28272
1.28092
1.27964
1.27966
1.28135
1.28579
1.29226
1.2995
1.30623
1.31158
1.3152
1.31725
1.31814
1.31834
1.31825
1.31803
1.31761
1.317
1.31638
1.31585
1.31542
1.31507
1.31476
1.31449
1.31432
1.31423
1.31425
1.31434
1.31445
1.31456
1.31465
1.31472
1.3148
1.31487
1.31497
1.31508
1.31518
1.31522
1.31519
1.31505
1.31479
1.31452
1.31421
1.31388
1.31353
1.31329
1.31316
1.31315
1.31327
1.31342
1.31796
1.31819
1.31865
1.31956
1.32085
1.32199
1.32279
1.32321
1.32343
1.32336
1.32265
1.32109
1.31938
1.31809
1.3173
1.31678
1.31655
1.3171
1.31853
1.3202
1.32166
1.32282
1.32361
1.32406
1.32428
1.32434
1.32417
1.32312
1.32094
1.31828
1.31609
1.31475
1.31391
1.31337
1.31339
1.31473
1.31679
1.31877
1.3203
1.32139
1.32219
1.32276
1.3232
1.32356
1.32392
1.32425
1.32453
1.3247
1.32478
1.32476
1.3246
1.32359
1.3212
1.31776
1.31417
1.31132
1.30958
1.30862
1.30792
1.30769
1.30879
1.31107
1.3136
1.31574
1.31732
1.31839
1.31914
1.31976
1.32032
1.32085
1.32137
1.32184
1.32224
1.32254
1.32275
1.32289
1.32299
1.32306
1.32314
1.32325
1.32341
1.32361
1.32384
1.32404
1.32419
1.32428
1.32431
1.32429
1.32429
1.32423
1.32411
1.32354
1.3221
1.31953
1.31591
1.3117
1.30754
1.30401
1.30149
1.29999
1.29909
1.29845
1.29821
1.29914
1.30163
1.30506
1.30866
1.31188
1.31441
1.3162
1.31733
1.31797
1.31828
1.31842
1.31849
1.31853
1.31855
1.31857
1.31859
1.31863
1.31875
1.31903
1.31945
1.31994
1.3204
1.3208
1.3211
1.32131
1.32145
1.32154
1.32158
1.32159
1.32159
1.32159
1.32158
1.32159
1.32162
1.32168
1.32179
1.32193
1.3221
1.32228
1.32244
1.32259
1.32271
1.32281
1.32289
1.32295
1.32299
1.32301
1.32301
1.32299
1.32295
1.32291
1.32286
1.32281
1.32277
1.32272
1.32264
1.32244
1.322
1.32107
1.31925
1.31616
1.31154
1.30557
1.29892
1.29255
1.28737
1.28391
1.28191
1.28046
1.27997
1.2804
1.28362
1.28921
1.29619
1.30322
1.30922
1.31364
1.31638
1.31778
1.31825
1.31825
1.31814
1.31781
1.31729
1.31666
1.31608
1.31561
1.31524
1.31493
1.31463
1.31443
1.3143
1.31427
1.31435
1.31446
1.31457
1.31467
1.31476
1.31484
1.31492
1.31502
1.31514
1.31526
1.31534
1.31535
1.31526
1.31508
1.3148
1.31452
1.31421
1.31389
1.31361
1.31343
1.31337
1.31345
1.3136
1.31376
1.31778
1.31813
1.31864
1.31964
1.32094
1.32206
1.32283
1.32322
1.32342
1.32333
1.32251
1.3209
1.31922
1.318
1.31725
1.31676
1.31657
1.31723
1.31872
1.32038
1.32181
1.32293
1.32368
1.32408
1.3243
1.32432
1.3241
1.32288
1.32058
1.31795
1.31587
1.31465
1.31383
1.31336
1.31352
1.31503
1.31711
1.31903
1.32049
1.32154
1.3223
1.32284
1.32326
1.32363
1.32398
1.32431
1.32457
1.32472
1.3248
1.32475
1.32449
1.32321
1.32055
1.31699
1.3135
1.31089
1.30939
1.30849
1.30787
1.30783
1.30928
1.31169
1.31415
1.31617
1.31761
1.3186
1.31931
1.31992
1.32047
1.321
1.32151
1.32197
1.32234
1.32262
1.3228
1.32293
1.32302
1.32309
1.32318
1.3233
1.32348
1.32369
1.32391
1.3241
1.32423
1.3243
1.32431
1.32429
1.32428
1.32422
1.32398
1.32314
1.32129
1.3183
1.31439
1.31013
1.30614
1.30297
1.30087
1.2997
1.29884
1.29843
1.29842
1.30004
1.30298
1.30655
1.31005
1.313
1.31523
1.31673
1.31764
1.31813
1.31835
1.31845
1.31851
1.31854
1.31857
1.31859
1.31861
1.31868
1.31887
1.31922
1.31969
1.32017
1.32061
1.32096
1.32122
1.3214
1.32151
1.32157
1.3216
1.3216
1.3216
1.3216
1.32159
1.32161
1.32165
1.32174
1.32186
1.32202
1.3222
1.32237
1.32252
1.32266
1.32277
1.32286
1.32293
1.32298
1.32301
1.32301
1.323
1.32297
1.32293
1.32288
1.32283
1.32279
1.32274
1.32268
1.32254
1.32223
1.32155
1.32016
1.31767
1.31374
1.30834
1.30193
1.29537
1.28962
1.28543
1.2829
1.28121
1.28003
1.28011
1.28202
1.28653
1.29293
1.30002
1.30654
1.31171
1.3152
1.31719
1.31805
1.31825
1.31817
1.31796
1.31755
1.31695
1.31634
1.31582
1.31541
1.31508
1.31479
1.31454
1.31438
1.3143
1.31434
1.31445
1.31457
1.31468
1.31478
1.31487
1.31496
1.31506
1.31518
1.31531
1.31542
1.31547
1.31544
1.3153
1.31506
1.3148
1.31451
1.31421
1.3139
1.3137
1.31359
1.31362
1.31375
1.31392
1.31406
1.3176
1.31808
1.31864
1.31972
1.32103
1.32213
1.32286
1.32323
1.32341
1.32328
1.32236
1.32072
1.31908
1.31792
1.3172
1.31674
1.31661
1.31738
1.31891
1.32056
1.32196
1.32304
1.32374
1.32411
1.32433
1.3243
1.324
1.32262
1.32023
1.31763
1.31568
1.31455
1.31376
1.31335
1.31369
1.31533
1.31743
1.31929
1.32068
1.32168
1.3224
1.32292
1.32333
1.3237
1.32405
1.32437
1.32461
1.32473
1.32481
1.32473
1.32433
1.32276
1.31985
1.31623
1.31289
1.31052
1.30924
1.30834
1.30787
1.30806
1.30981
1.31229
1.31468
1.31656
1.31789
1.31879
1.31948
1.32008
1.32062
1.32115
1.32165
1.32209
1.32243
1.32268
1.32285
1.32296
1.32305
1.32312
1.32322
1.32336
1.32355
1.32377
1.32398
1.32416
1.32427
1.32431
1.32431
1.3243
1.32426
1.32417
1.32378
1.3226
1.32032
1.31694
1.31283
1.3086
1.30489
1.30211
1.3004
1.29945
1.2987
1.2984
1.29893
1.30114
1.30442
1.30803
1.31134
1.314
1.31592
1.31716
1.31788
1.31824
1.31841
1.31849
1.31853
1.31856
1.31858
1.3186
1.31865
1.31875
1.31902
1.31944
1.31992
1.32039
1.3208
1.32111
1.32133
1.32147
1.32155
1.3216
1.32161
1.32162
1.32161
1.3216
1.32161
1.32163
1.3217
1.3218
1.32195
1.32212
1.32229
1.32246
1.3226
1.32272
1.32283
1.32291
1.32296
1.323
1.32302
1.32301
1.32299
1.32295
1.3229
1.32285
1.3228
1.32276
1.32272
1.32262
1.3224
1.3219
1.32086
1.3189
1.31564
1.31089
1.30488
1.29833
1.29217
1.28726
1.28403
1.28214
1.28081
1.28035
1.28093