/*--------------------------------*- C++ -*----------------------------------*\
| =========                 |                                                 |
| \\      /  F ield         | OpenFOAM: The Open Source CFD Toolbox           |
|  \\    /   O peration     | Version:  v2012                                 |
|   \\  /    A nd           | Website:  www.openfoam.com                      |
|    \\/     M anipulation  |                                                 |
\*---------------------------------------------------------------------------*/
FoamFile
{
    version     2.0;
    format      ascii;
    class       volScalarField;
    location    "0";
    object      T;
}
// * * * * * * * * * * * * * * * * * * * * * * * * * * * * * * * * * * * * * //

dimensions      [0 0 0 1 0 0 0];


internalField   nonuniform List<scalar> 
97664
(
345.663
345.833
345.887
345.838
345.626
345.296
344.949
344.675
344.506
344.431
344.404
344.511
344.84
345.291
345.686
345.938
346.073
346.144
346.073
345.772
345.349
344.935
344.585
344.306
344.115
344.007
343.962
343.946
344.021
344.348
344.949
345.646
346.211
346.544
346.717
346.823
346.754
346.393
345.87
345.357
344.946
344.644
344.416
344.251
344.126
344.023
343.927
343.83
343.738
343.662
343.616
343.601
343.598
343.66
343.947
344.577
345.476
346.43
347.213
347.707
347.948
348.081
348.125
347.857
347.289
346.613
346.006
345.545
345.23
345.021
344.861
344.719
344.581
344.441
344.299
344.166
344.055
343.97
343.912
343.872
343.844
343.821
343.796
343.766
343.724
343.669
343.605
343.542
343.488
343.448
343.423
343.413
343.414
343.417
343.421
343.447
343.558
343.852
344.413
345.26
346.322
347.46
348.511
349.343
349.893
350.193
350.351
350.456
350.377
349.93
349.145
348.182
347.22
346.386
345.742
345.294
345.014
344.86
344.785
344.751
344.734
344.724
344.721
344.719
344.711
344.698
344.675
344.619
344.524
344.403
344.276
344.158
344.059
343.983
343.928
343.891
343.868
343.853
343.845
343.839
343.834
343.829
343.822
343.809
343.786
343.753
343.71
343.662
343.613
343.566
343.525
343.489
343.458
343.432
343.409
343.391
343.377
343.368
343.364
343.367
343.374
343.384
343.394
343.405
343.418
343.434
343.456
343.496
343.581
343.776
344.188
344.959
346.207
347.942
350.001
352.068
353.795
354.959
355.603
355.929
356.066
355.689
354.527
352.642
350.386
348.201
346.428
345.224
344.543
344.231
344.128
344.112
344.133
344.193
344.289
344.396
344.492
344.564
344.61
344.635
344.644
344.638
344.612
344.557
344.479
344.385
344.281
344.171
344.059
343.946
343.836
343.727
343.618
343.503
343.381
343.25
343.113
342.989
342.891
342.831
345.664
345.833
345.883
345.82
345.595
345.259
344.919
344.655
344.497
344.43
344.41
344.538
344.887
345.339
345.719
345.955
346.08
346.144
346.047
345.727
345.3
344.892
344.548
344.279
344.099
344.001
343.962
343.95
344.051
344.42
345.048
345.737
346.269
346.571
346.729
346.824
346.712
346.316
345.785
345.284
344.892
344.603
344.386
344.228
344.108
344.007
343.91
343.813
343.722
343.651
343.612
343.602
343.603
343.7
344.057
344.759
345.691
346.622
347.343
347.767
347.969
348.095
348.083
347.733
347.121
346.452
345.878
345.456
345.17
344.978
344.822
344.68
344.541
344.399
344.259
344.131
344.028
343.951
343.899
343.863
343.837
343.813
343.788
343.754
343.707
343.649
343.584
343.524
343.474
343.438
343.419
343.414
343.415
343.419
343.427
343.475
343.645
344.037
344.713
345.659
346.77
347.89
348.863
349.582
350.019
350.25
350.379
350.439
350.219
349.619
348.74
347.76
346.843
346.087
345.529
345.158
344.938
344.823
344.769
344.744
344.73
344.722
344.721
344.716
344.705
344.689
344.652
344.577
344.467
344.34
344.215
344.106
344.018
343.953
343.907
343.877
343.859
343.847
343.84
343.835
343.831
343.825
343.815
343.797
343.769
343.731
343.684
343.635
343.587
343.543
343.504
343.47
343.441
343.417
343.397
343.381
343.369
343.363
343.364
343.369
343.378
343.388
343.398
343.409
343.423
343.442
343.472
343.534
343.677
343.991
344.606
345.656
347.201
349.146
351.23
353.105
354.485
355.302
355.709
355.932
355.822
354.991
353.383
351.247
349.011
347.065
345.641
344.77
344.329
344.159
344.119
344.127
344.17
344.256
344.364
344.466
344.547
344.603
344.635
344.649
344.649
344.632
344.587
344.515
344.425
344.324
344.217
344.106
343.995
343.886
343.779
343.672
343.561
343.441
343.314
343.183
343.066
342.977
342.925
342.906
345.665
345.832
345.877
345.801
345.562
345.223
344.889
344.637
344.489
344.429
344.417
344.568
344.935
345.385
345.749
345.97
346.086
346.141
346.019
345.681
345.251
344.849
344.513
344.254
344.085
343.996
343.962
343.956
344.087
344.497
345.146
345.823
346.32
346.594
346.74
346.819
346.664
346.237
345.702
345.214
344.84
344.563
344.357
344.207
344.091
343.99
343.892
343.796
343.707
343.642
343.61
343.603
343.613
343.752
344.184
344.953
345.904
346.8
347.455
347.815
347.988
348.101
348.021
347.596
346.954
346.299
345.761
345.375
345.116
344.936
344.783
344.642
344.501
344.358
344.22
344.099
344.003
343.934
343.887
343.855
343.83
343.806
343.778
343.74
343.689
343.628
343.564
343.506
343.46
343.431
343.417
343.415
343.417
343.421
343.437
343.521
343.766
344.266
345.055
346.082
347.216
348.293
349.171
349.772
350.11
350.288
350.398
350.374
349.996
349.263
348.322
347.354
346.499
345.827
345.352
345.051
344.881
344.797
344.758
344.739
344.727
344.722
344.719
344.71
344.698
344.675
344.621
344.527
344.406
344.278
344.159
344.06
343.983
343.927
343.89
343.866
343.851
343.842
343.836
343.832
343.827
343.819
343.806
343.783
343.75
343.706
343.658
343.608
343.562
343.52
343.484
343.453
343.426
343.404
343.386
343.372
343.364
343.361
343.364
343.372
343.382
343.392
343.401
343.413
343.429
343.453
343.499
343.602
343.837
344.317
345.181
346.525
348.32
350.367
352.341
353.922
354.938
355.48
355.763
355.837
355.326
354.036
352.093
349.869
347.791
346.154
345.073
344.478
344.215
344.135
344.126
344.153
344.223
344.327
344.435
344.525
344.591
344.631
344.652
344.658
344.648
344.614
344.55
344.466
344.368
344.263
344.154
344.044
343.937
343.832
343.727
343.618
343.502
343.379
343.254
343.14
343.053
342.999
342.977
342.974
345.665
345.83
345.869
345.78
345.529
345.186
344.861
344.619
344.483
344.428
344.426
344.601
344.984
345.43
345.777
345.984
346.092
346.135
345.988
345.633
345.202
344.808
344.479
344.23
344.072
343.992
343.962
343.965
344.128
344.579
345.245
345.904
346.366
346.615
346.752
346.81
346.609
346.155
345.62
345.147
344.791
344.526
344.33
344.187
344.074
343.973
343.875
343.778
343.693
343.635
343.61
343.604
343.628
343.818
344.328
345.154
346.113
346.965
347.551
347.853
348.006
348.097
347.939
347.447
346.787
346.154
345.654
345.301
345.067
344.895
344.744
344.602
344.46
344.318
344.183
344.069
343.981
343.919
343.877
343.847
343.822
343.798
343.767
343.725
343.67
343.607
343.544
343.49
343.449
343.425
343.416
343.416
343.419
343.424
343.457
343.59
343.926
344.539
345.433
346.52
347.649
348.66
349.431
349.917
350.176
350.319
350.401
350.246
349.714
348.874
347.904
346.972
346.191
345.604
345.207
344.968
344.84
344.78
344.751
344.735
344.725
344.721
344.715
344.704
344.689
344.653
344.58
344.471
344.343
344.218
344.107
344.018
343.952
343.906
343.876
343.857
343.845
343.838
343.833
343.828
343.822
343.812
343.794
343.766
343.727
343.68
343.631
343.583
343.538
343.499
343.465
343.436
343.412
343.392
343.376
343.365
343.36
343.361
343.367
343.376
343.386
343.395
343.405
343.418
343.437
343.472
343.546
343.718
344.086
344.781
345.923
347.54
349.5
351.522
353.274
354.511
355.215
355.566
355.749
355.531
354.574
352.886
350.753
348.593
346.768
345.465
344.686
344.303
344.161
344.129
344.144
344.193
344.288
344.398
344.497
344.573
344.623
344.65
344.662
344.66
344.637
344.583
344.505
344.412
344.309
344.202
344.094
343.988
343.884
343.781
343.676
343.563
343.444
343.322
343.21
343.122
343.067
343.04
343.032
343.035
345.665
345.827
345.86
345.757
345.495
345.151
344.833
344.603
344.477
344.428
344.437
344.636
345.033
345.474
345.804
345.997
346.098
346.128
345.954
345.585
345.154
344.767
344.446
344.208
344.061
343.989
343.963
343.977
344.176
344.664
345.343
345.981
346.407
346.634
346.762
346.793
346.549
346.072
345.539
345.083
344.744
344.491
344.304
344.167
344.057
343.956
343.858
343.762
343.681
343.629
343.61
343.605
343.65
343.9
344.487
345.361
346.314
347.113
347.63
347.885
348.021
348.08
347.839
347.291
346.624
346.019
345.556
345.235
345.02
344.854
344.705
344.563
344.42
344.278
344.148
344.041
343.961
343.905
343.867
343.839
343.815
343.789
343.755
343.709
343.651
343.586
343.525
343.475
343.44
343.422
343.416
343.418
343.421
343.431
343.491
343.69
344.128
344.855
345.84
346.962
348.061
348.985
349.64
350.02
350.22
350.343
350.36
350.053
349.38
348.466
347.497
346.62
345.92
345.417
345.092
344.905
344.811
344.767
344.745
344.731
344.724
344.719
344.71
344.698
344.675
344.623
344.531
344.41
344.281
344.161
344.061
343.983
343.927
343.888
343.864
343.849
343.84
343.834
343.829
343.825
343.817
343.803
343.78
343.746
343.703
343.654
343.605
343.558
343.516
343.479
343.448
343.421
343.399
343.381
343.368
343.361
343.359
343.362
343.37
343.379
343.389
343.398
343.409
343.424
343.45
343.504
343.628
343.904
344.451
345.399
346.822
348.654
350.67
352.547
353.993
354.888
355.348
355.598
355.6
354.985
353.598
351.628
349.454
347.476
345.954
344.969
344.437
344.209
344.143
344.138
344.171
344.249
344.357
344.464
344.55
344.61
344.645
344.663
344.667
344.654
344.612
344.543
344.455
344.355
344.25
344.144
344.039
343.936
343.835
343.732
343.623
343.507
343.388
343.276
343.185
343.127
343.096
343.085
343.086
343.087
345.664
345.823
345.85
345.733
345.46
345.116
344.807
344.588
344.472
344.428
344.45
344.673
345.082
345.515
345.828
346.008
346.103
346.117
345.919
345.537
345.107
344.727
344.414
344.187
344.051
343.987
343.964
343.993
344.228
344.753
345.439
346.052
346.444
346.65
346.77
346.771
346.485
345.988
345.461
345.023
344.7
344.457
344.28
344.148
344.04
343.939
343.84
343.746
343.669
343.625
343.61
343.608
343.683
343.999
344.659
345.571
346.505
347.246
347.693
347.909
348.036
348.044
347.722
347.13
346.467
345.893
345.466
345.175
344.976
344.814
344.666
344.523
344.379
344.239
344.115
344.016
343.943
343.893
343.859
343.832
343.807
343.779
343.742
343.691
343.63
343.566
343.508
343.462
343.433
343.42
343.417
343.42
343.423
343.444
343.544
343.825
344.373
345.21
346.266
347.398
348.442
349.265
349.805
350.097
350.252
350.354
350.262
349.8
349.009
348.053
347.11
346.303
345.686
345.262
345.001
344.859
344.79
344.757
344.74
344.728
344.722
344.716
344.704
344.689
344.655
344.583
344.475
344.347
344.221
344.109
344.019
343.952
343.905
343.874
343.855
343.844
343.836
343.831
343.826
343.82
343.81
343.792
343.763
343.724
343.677
343.627
343.579
343.534
343.495
343.461
343.432
343.407
343.387
343.372
343.362
343.358
343.359
343.365
343.374
343.383
343.392
343.401
343.413
343.433
343.473
343.561
343.764
344.185
344.955
346.176
347.846
349.802
351.753
353.385
354.495
355.11
355.419
355.565
355.247
354.199
352.458
350.346
348.267
346.545
345.34
344.631
344.288
344.165
344.14
344.158
344.213
344.313
344.424
344.52
344.591
344.636
344.66
344.671
344.666
344.637
344.578
344.496
344.4
344.298
344.193
344.089
343.987
343.888
343.787
343.681
343.568
343.451
343.339
343.246
343.182
343.147
343.133
343.131
343.134
343.125
345.662
345.819
345.838
345.707
345.424
345.081
344.781
344.574
344.468
344.428
344.466
344.712
345.131
345.554
345.851
346.019
346.108
346.104
345.881
345.488
345.061
344.688
344.384
344.168
344.042
343.986
343.965
344.012
344.287
344.845
345.532
346.118
346.477
346.664
346.777
346.742
346.416
345.904
345.385
344.965
344.657
344.425
344.256
344.129
344.023
343.922
343.822
343.73
343.659
343.621
343.611
343.614
343.726
344.114
344.843
345.78
346.685
347.363
347.745
347.927
348.045
347.99
347.593
346.967
346.316
345.776
345.385
345.12
344.933
344.774
344.627
344.482
344.338
344.202
344.085
343.993
343.928
343.882
343.85
343.825
343.799
343.769
343.727
343.673
343.609
343.546
343.492
343.451
343.428
343.419
343.419
343.421
343.427
343.468
343.624
344.001
344.663
345.598
346.702
347.817
348.784
349.496
349.926
350.152
350.28
350.335
350.101
349.492
348.613
347.646
346.751
346.021
345.488
345.137
344.932
344.826
344.775
344.75
344.736
344.726
344.72
344.711
344.698
344.676
344.626
344.535
344.415
344.285
344.164
344.062
343.984
343.926
343.888
343.863
343.848
343.839
343.832
343.828
343.823
343.815
343.801
343.778
343.744
343.7
343.651
343.601
343.554
343.512
343.475
343.444
343.417
343.395
343.377
343.365
343.358
343.357
343.36
343.368
343.377
343.387
343.395
343.404
343.42
343.449
343.512
343.658
343.976
344.587
345.611
347.095
348.946
350.917
352.697
354.02
354.817
355.22
355.434
355.377
354.663
353.214
351.237
349.12
347.235
345.808
344.897
344.412
344.208
344.152
344.15
344.186
344.27
344.381
344.485
344.567
344.622
344.655
344.671
344.673
344.657
344.609
344.536
344.445
344.345
344.242
344.139
344.038
343.939
343.84
343.737
343.628
343.513
343.401
343.305
343.234
343.194
343.176
343.172
343.175
343.174
343.15
345.66
345.813
345.825
345.68
345.388
345.047
344.757
344.561
344.466
344.429
344.484
344.752
345.18
345.592
345.872
346.028
346.111
346.088
345.842
345.439
345.015
344.649
344.354
344.15
344.034
343.985
343.967
344.036
344.351
344.938
345.623
346.179
346.506
346.677
346.78
346.707
346.343
345.82
345.313
344.91
344.616
344.395
344.234
344.111
344.006
343.905
343.805
343.716
343.651
343.619
343.612
343.625
343.782
344.246
345.036
345.986
346.852
347.463
347.786
347.945
348.047
347.917
347.451
346.805
346.174
345.67
345.311
345.07
344.891
344.734
344.587
344.442
344.299
344.167
344.056
343.972
343.913
343.873
343.843
343.817
343.791
343.757
343.711
343.653
343.588
343.527
343.477
343.442
343.424
343.419
343.42
343.423
343.435
343.508
343.737
344.219
344.993
346.01
347.138
348.21
349.083
349.68
350.014
350.19
350.298
350.267
349.879
349.142
348.207
347.256
346.423
345.776
345.323
345.039
344.88
344.802
344.764
344.745
344.732
344.724
344.716
344.705
344.689
344.657
344.587
344.48
344.352
344.225
344.112
344.021
343.953
343.905
343.874
343.854
343.842
343.834
343.829
343.825
343.819
343.808
343.79
343.761
343.722
343.675
343.625
343.576
343.531
343.491
343.457
343.428
343.403
343.383
343.369
343.359
343.355
343.357
343.363
343.372
343.381
343.389
343.397
343.408
343.43
343.475
343.579
343.814
344.289
345.127
346.415
348.12
350.057
351.933
353.455
354.454
354.999
355.277
355.38
354.982
353.857
352.094
350.012
348.01
346.379
345.251
344.594
344.28
344.17
344.151
344.169
344.23
344.333
344.444
344.537
344.603
344.645
344.667
344.676
344.669
344.636
344.572
344.488
344.391
344.29
344.189
344.088
343.99
343.892
343.792
343.686
343.574
343.462
343.361
343.285
343.239
343.216
343.209
343.211
343.214
343.202
343.16
345.657
345.807
345.811
345.651
345.352
345.014
344.733
344.55
344.463
344.431
344.504
344.795
345.228
345.627
345.891
346.036
346.113
346.07
345.801
345.39
344.971
344.612
344.326
344.133
344.028
343.985
343.97
344.064
344.42
345.033
345.71
346.234
346.532
346.688
346.781
346.665
346.267
345.738
345.243
344.859
344.577
344.366
344.213
344.093
343.989
343.887
343.788
343.702
343.644
343.619
343.612
343.643
343.853
344.393
345.236
346.185
347.004
347.547
347.819
347.961
348.034
347.825
347.302
346.646
346.04
345.572
345.244
345.022
344.849
344.694
344.547
344.401
344.26
344.133
344.03
343.954
343.901
343.863
343.835
343.81
343.781
343.743
343.694
343.632
343.568
343.51
343.464
343.435
343.422
343.42
343.422
343.425
343.451
343.57
343.886
344.48
345.359
346.437
347.561
348.569
349.338
349.821
350.078
350.22
350.3
350.138
349.6
348.762
347.802
346.89
346.131
345.566
345.188
344.962
344.842
344.785
344.756
344.74
344.728
344.721
344.711
344.698
344.677
344.629
344.54
344.42
344.29
344.168
344.065
343.985
343.927
343.887
343.862
343.847
343.837
343.831
343.826
343.821
343.813
343.799
343.776
343.742
343.698
343.648
343.598
343.551
343.509
343.471
343.44
343.413
343.391
343.374
343.362
343.355
343.355
343.359
343.366
343.375
343.383
343.391
343.4
343.415
343.448
343.521
343.692
344.052
344.724
345.813
347.345
349.198
351.118
352.803
354.019
354.73
355.084
355.28
355.16
354.37
352.876
350.912
348.853
347.05
345.701
344.849
344.397
344.209
344.159
344.16
344.199
344.287
344.398
344.501
344.579
344.63
344.66
344.675
344.675
344.657
344.606
344.528
344.436
344.337
344.237
344.138
344.04
343.944
343.846
343.742
343.632
343.521
343.418
343.335
343.281
343.253
343.243
343.243
343.247
343.244
343.218
343.156
345.654
345.799
345.795
345.621
345.315
344.982
344.711
344.539
344.462
344.433
344.527
344.838
345.275
345.661
345.91
346.043
346.114
346.049
345.759
345.341
344.927
344.575
344.3
344.118
344.022
343.985
343.976
344.098
344.494
345.128
345.793
346.284
346.555
346.7
346.776
346.617
346.189
345.657
345.175
344.81
344.54
344.339
344.192
344.076
343.971
343.869
343.771
343.69
343.638
343.619
343.614
343.668
343.94
344.554
345.44
346.377
347.14
347.615
347.846
347.977
348.006
347.717
347.146
346.491
345.915
345.482
345.183
344.977
344.807
344.654
344.506
344.361
344.223
344.102
344.007
343.937
343.889
343.855
343.828
343.802
343.771
343.729
343.675
343.612
343.548
343.494
343.454
343.43
343.421
343.421
343.424
343.43
343.479
343.66
344.076
344.783
345.753
346.868
347.964
348.887
349.543
349.922
350.121
350.244
350.258
349.947
349.273
348.365
347.41
346.553
345.874
345.39
345.08
344.904
344.815
344.772
344.75
344.736
344.726
344.717
344.706
344.69
344.659
344.592
344.486
344.358
344.23
344.116
344.023
343.954
343.905
343.873
343.853
343.841
343.833
343.827
343.823
343.817
343.806
343.788
343.759
343.72
343.672
343.622
343.573
343.528
343.488
343.453
343.424
343.399
343.38
343.366
343.357
343.353
343.355
343.361
343.369
343.378
343.386
343.393
343.404
343.427
343.479
343.601
343.869
344.394
345.295
346.637
348.363
350.271
352.071
353.492
354.399
354.883
355.131
355.202
354.735
353.554
351.78
349.74
347.808
346.254
345.189
344.572
344.278
344.177
344.161
344.18
344.244
344.349
344.459
344.548
344.611
344.65
344.671
344.678
344.669
344.633
344.566
344.48
344.384
344.284
344.186
344.089
343.994
343.897
343.797
343.69
343.58
343.474
343.385
343.323
343.289
343.275
343.272
343.276
343.278
343.265
343.221
343.137
345.65
345.79
345.777
345.59
345.279
344.951
344.69
344.53
344.46
344.437
344.553
344.883
345.321
345.692
345.926
346.05
346.114
346.025
345.715
345.292
344.884
344.54
344.275
344.105
344.017
343.985
343.984
344.137
344.572
345.224
345.872
346.328
346.575
346.711
346.766
346.564
346.109
345.577
345.111
344.763
344.504
344.313
344.172
344.058
343.954
343.852
343.755
343.679
343.634
343.619
343.618
343.703
344.043
344.728
345.644
346.558
347.262
347.67
347.866
347.989
347.96
347.595
346.989
346.343
345.799
345.4
345.127
344.932
344.766
344.614
344.466
344.321
344.187
344.073
343.985
343.922
343.879
343.847
343.82
343.793
343.759
343.713
343.655
343.591
343.53
343.479
343.445
343.427
343.422
343.423
343.425
343.44
343.526
343.784
344.309
345.125
346.168
347.294
348.337
349.163
349.705
349.998
350.153
350.255
350.162
349.699
348.91
347.965
347.038
346.25
345.652
345.245
344.996
344.861
344.795
344.763
344.745
344.732
344.722
344.712
344.699
344.679
344.632
344.546
344.427
344.296
344.173
344.069
343.987
343.928
343.887
343.862
343.846
343.836
343.829
343.825
343.82
343.812
343.798
343.774
343.74
343.696
343.646
343.596
343.549
343.506
343.468
343.436
343.409
343.387
343.371
343.359
343.353
343.353
343.357
343.364
343.372
343.381
343.388
343.396
343.412
343.448
343.534
343.729
344.132
344.859
346.005
347.572
349.416
351.28
352.876
353.998
354.638
354.957
355.129
354.952
354.103
352.581
350.638
348.638
346.907
345.624
344.816
344.39
344.214
344.167
344.17
344.211
344.3
344.411
344.512
344.587
344.635
344.663
344.677
344.676
344.654
344.6
344.522
344.429
344.331
344.234
344.137
344.043
343.948
343.85
343.746
343.637
343.529
343.435
343.365
343.323
343.304
343.299
343.301
343.306
343.301
343.274
343.211
343.109
345.645
345.781
345.758
345.558
345.242
344.92
344.671
344.521
344.458
344.443
344.58
344.929
345.366
345.722
345.941
346.056
346.111
345.998
345.67
345.244
344.842
344.505
344.251
344.092
344.014
343.985
343.994
344.181
344.654
345.318
345.947
346.368
346.594
346.72
346.75
346.505
346.028
345.499
345.05
344.718
344.471
344.289
344.153
344.041
343.936
343.834
343.74
343.669
343.63
343.62
343.625
343.75
344.162
344.911
345.847
346.728
347.367
347.715
347.884
347.994
347.897
347.462
346.831
346.202
345.692
345.325
345.075
344.889
344.725
344.573
344.426
344.283
344.153
344.046
343.966
343.909
343.869
343.839
343.812
343.783
343.746
343.696
343.635
343.571
343.512
343.467
343.438
343.425
343.422
343.424
343.427
343.459
343.596
343.947
344.584
345.499
346.592
347.705
348.674
349.391
349.825
350.053
350.181
350.236
350.004
349.398
348.526
347.571
346.692
345.981
345.464
345.128
344.931
344.83
344.781
344.755
344.74
344.728
344.719
344.707
344.691
344.662
344.597
344.493
344.365
344.236
344.12
344.027
343.956
343.906
343.873
343.852
343.84
343.832
343.826
343.822
343.815
343.805
343.787
343.758
343.718
343.67
343.62
343.571
343.525
343.485
343.45
343.421
343.396
343.377
343.363
343.355
343.351
343.353
343.359
343.367
343.375
343.383
343.39
343.401
343.426
343.486
343.625
343.927
344.501
345.457
346.842
348.578
350.451
352.177
353.505
354.332
354.764
354.993
355.022
354.505
353.285
351.511
349.515
347.65
346.161
345.145
344.559
344.28
344.184
344.169
344.189
344.255
344.361
344.469
344.556
344.616
344.653
344.672
344.679
344.668
344.629
344.56
344.473
344.378
344.281
344.185
344.091
343.998
343.902
343.8
343.693
343.585
343.486
343.409
343.357
343.331
343.323
343.323
343.329
343.33
343.316
343.271
343.188
343.076
345.639
345.77
345.737
345.525
345.206
344.891
344.652
344.514
344.458
344.45
344.61
344.975
345.409
345.75
345.955
346.062
346.107
345.969
345.624
345.196
344.801
344.472
344.229
344.081
344.011
343.986
344.008
344.231
344.739
345.41
346.016
346.404
346.61
346.729
346.728
346.441
345.946
345.424
344.992
344.676
344.438
344.265
344.134
344.023
343.919
343.817
343.726
343.661
343.628
343.621
343.638
343.809
344.296
345.102
346.046
346.884
347.457
347.75
347.901
347.987
347.815
347.32
346.676
346.069
345.593
345.257
345.026
344.846
344.684
344.533
344.386
344.245
344.121
344.022
343.948
343.896
343.86
343.831
343.804
343.773
343.732
343.678
343.615
343.551
343.496
343.456
343.432
343.424
343.424
343.426
343.433
343.492
343.697
344.15
344.898
345.897
347.018
348.091
348.97
349.573
349.912
350.09
350.2
350.171
349.788
349.057
348.131
347.194
346.378
345.746
345.308
345.035
344.883
344.807
344.77
344.749
344.735
344.724
344.714
344.7
344.681
344.636
344.552
344.434
344.303
344.179
344.073
343.99
343.929
343.888
343.861
343.845
343.835
343.828
343.823
343.818
343.81
343.796
343.773
343.738
343.694
343.644
343.594
343.546
343.503
343.465
343.433
343.406
343.384
343.368
343.357
343.351
343.351
343.355
343.362
343.37
343.378
343.385
343.393
343.41
343.451
343.549
343.771
344.214
344.992
346.187
347.778
349.606
351.411
352.922
353.96
354.541
354.831
354.98
354.749
353.861
352.326
350.408
348.464
346.797
345.568
344.796
344.389
344.22
344.175
344.179
344.22
344.31
344.421
344.519
344.591
344.638
344.664
344.676
344.675
344.651
344.595
344.515
344.423
344.327
344.232
344.138
344.046
343.952
343.854
343.749
343.641
343.538
343.452
343.392
343.359
343.346
343.344
343.348
343.353
343.349
343.319
343.255
343.159
343.043
345.632
345.759
345.715
345.49
345.169
344.862
344.635
344.507
344.457
344.46
344.643
345.022
345.451
345.776
345.967
346.068
346.1
345.938
345.578
345.149
344.76
344.44
344.208
344.072
344.01
343.986
344.026
344.286
344.827
345.501
346.08
346.436
346.624
346.735
346.7
346.374
345.864
345.351
344.937
344.635
344.408
344.243
344.116
344.006
343.901
343.799
343.712
343.653
343.628
343.621
343.657
343.884
344.445
345.299
346.237
347.025
347.531
347.78
347.916
347.968
347.716
347.171
346.524
345.944
345.502
345.194
344.98
344.803
344.643
344.492
344.346
344.209
344.091
343.999
343.932
343.885
343.851
343.824
343.796
343.762
343.716
343.659
343.594
343.533
343.482
343.447
343.429
343.424
343.425
343.427
343.445
343.544
343.832
344.396
345.249
346.312
347.433
348.445
349.223
349.715
349.976
350.12
350.203
350.047
349.516
348.687
347.739
346.84
346.097
345.547
345.181
344.963
344.847
344.79
344.761
344.744
344.731
344.72
344.708
344.692
344.664
344.602
344.5
344.373
344.243
344.126
344.03
343.958
343.907
343.873
343.852
343.839
343.831
343.825
343.82
343.814
343.804
343.785
343.756
343.717
343.669
343.618
343.569
343.523
343.482
343.447
343.418
343.393
343.374
343.361
343.353
343.35
343.352
343.358
343.365
343.373
343.381
343.387
343.398
343.426
343.494
343.653
343.988
344.608
345.613
347.033
348.771
350.603
352.256
353.5
354.259
354.645
354.859
354.852
354.288
353.045
351.282
349.329
347.524
346.091
345.116
344.553
344.285
344.192
344.178
344.197
344.264
344.37
344.476
344.561
344.619
344.653
344.671
344.677
344.666
344.625
344.555
344.467
344.373
344.278
344.185
344.093
344.001
343.906
343.804
343.697
343.591
343.499
343.43
343.387
343.368
343.363
343.364
343.371
343.373
343.358
343.312
343.231
343.125
343.012
345.624
345.747
345.691
345.456
345.134
344.835
344.619
344.501
344.456
344.471
344.677
345.069
345.491
345.799
345.979
346.073
346.091
345.904
345.53
345.103
344.721
344.409
344.189
344.063
344.009
343.988
344.048
344.346
344.917
345.589
346.139
346.465
346.636
346.738
346.666
346.303
345.783
345.28
344.884
344.596
344.379
344.221
344.097
343.988
343.883
343.783
343.7
343.648
343.628
343.623
343.684
343.973
344.607
345.498
346.42
347.151
347.591
347.803
347.93
347.931
347.604
347.019
346.378
345.828
345.419
345.137
344.934
344.761
344.603
344.452
344.307
344.175
344.064
343.979
343.918
343.875
343.843
343.816
343.786
343.749
343.7
343.639
343.574
343.515
343.469
343.44
343.427
343.425
343.426
343.429
343.467
343.623
344.007
344.682
345.628
346.733
347.829
348.761
349.429
349.817
350.02
350.144
350.164
349.863
349.199
348.302
347.358
346.515
345.85
345.379
345.079
344.908
344.82
344.778
344.754
344.739
344.727
344.715
344.701
344.682
344.64
344.559
344.442
344.311
344.185
344.078
343.993
343.931
343.889
343.861
343.844
343.834
343.827
343.822
343.817
343.809
343.795
343.772
343.737
343.693
343.643
343.592
343.544
343.501
343.463
343.43
343.403
343.382
343.366
343.355
343.35
343.35
343.354
343.36
343.368
343.376
343.382
343.39
343.408
343.455
343.567
343.815
344.297
345.123
346.359
347.965
349.771
351.518
352.949
353.911
354.44
354.706
354.837
354.56
353.638
352.101
350.214
348.323
346.713
345.528
344.784
344.391
344.227
344.183
344.187
344.227
344.318
344.428
344.524
344.594
344.639
344.663
344.675
344.673
344.648
344.59
344.51
344.418
344.324
344.231
344.14
344.049
343.956
343.857
343.752
343.645
343.547
343.468
343.416
343.39
343.381
343.38
343.385
343.391
343.387
343.357
343.293
343.2
343.091
342.984
345.616
345.734
345.666
345.42
345.098
344.808
344.604
344.496
344.455
344.485
344.713
345.116
345.529
345.822
345.989
346.077
346.079
345.868
345.483
345.057
344.682
344.38
344.171
344.056
344.008
343.991
344.074
344.412
345.008
345.674
346.193
346.491
346.647
346.739
346.625
346.229
345.703
345.212
344.834
344.558
344.351
344.2
344.079
343.971
343.865
343.767
343.689
343.643
343.628
343.627
343.721
344.079
344.78
345.697
346.592
347.263
347.64
347.821
347.938
347.878
347.479
346.866
346.238
345.72
345.343
345.083
344.889
344.719
344.562
344.412
344.269
344.142
344.038
343.96
343.905
343.866
343.835
343.807
343.776
343.735
343.682
343.619
343.555
343.499
343.458
343.435
343.426
343.426
343.427
343.436
343.504
343.733
344.222
345.006
346.029
347.15
348.199
349.036
349.591
349.893
350.051
350.156
350.074
349.623
348.847
347.913
346.997
346.222
345.638
345.241
344.999
344.866
344.801
344.768
344.748
344.734
344.722
344.709
344.694
344.667
344.607
344.508
344.382
344.251
344.132
344.035
343.961
343.909
343.874
343.852
343.838
343.83
343.824
343.82
343.813
343.803
343.784
343.756
343.716
343.668
343.617
343.567
343.521
343.48
343.445
343.415
343.391
343.372
343.359
343.351
343.348
343.351
343.356
343.363
343.371
343.378
343.384
343.396
343.427
343.505
343.684
344.052
344.714
345.763
347.211
348.942
350.731
352.314
353.48
354.18
354.533
354.724
354.693
354.087
352.828
351.084
349.174
347.423
346.04
345.097
344.552
344.291
344.2
344.186
344.205
344.271
344.376
344.481
344.564
344.619
344.653
344.67
344.674
344.663
344.621
344.55
344.462
344.369
344.276
344.186
344.096
344.005
343.909
343.806
343.7
343.597
343.51
343.448
343.412
343.398
343.395
343.398
343.405
343.407
343.392
343.346
343.267
343.166
343.058
342.96
345.606
345.72
345.639
345.384
345.064
344.783
344.59
344.492
344.455
344.501
344.752
345.163
345.565
345.843
345.999
346.081
346.065
345.83
345.435
345.012
344.644
344.351
344.155
344.05
344.008
343.995
344.104
344.482
345.1
345.755
346.242
346.514
346.658
346.734
346.578
346.153
345.624
345.147
344.787
344.522
344.325
344.18
344.061
343.953
343.847
343.752
343.679
343.64
343.629
343.636
343.77
344.2
344.962
345.894
346.752
347.359
347.679
347.838
347.939
347.806
347.345
346.714
346.105
345.621
345.273
345.033
344.845
344.677
344.521
344.372
344.233
344.111
344.015
343.943
343.893
343.857
343.827
343.799
343.765
343.72
343.663
343.599
343.536
343.485
343.45
343.431
343.426
343.427
343.428
343.45
343.563
343.879
344.478
345.363
346.442
347.554
348.534
349.266
349.714
349.95
350.079
350.142
349.924
349.333
348.473
347.53
346.662
345.963
345.458
345.129
344.936
344.836
344.787
344.76
344.743
344.73
344.717
344.703
344.684
344.644
344.566
344.451
344.32
344.193
344.083
343.997
343.934
343.89
343.862
343.844
343.834
343.826
343.821
343.816
343.808
343.794
343.771
343.736
343.692
343.642
343.591
343.543
343.499
343.461
343.428
343.401
343.38
343.364
343.354
343.349
343.349
343.353
343.359
343.367
343.374
343.38
343.387
343.408
343.461
343.588
343.862
344.382
345.25
346.521
348.137
349.915
351.604
352.96
353.853
354.341
354.586
354.696
354.385
353.434
351.901
350.049
348.206