/*--------------------------------*- C++ -*----------------------------------*\
| =========                 |                                                 |
| \\      /  F ield         | OpenFOAM: The Open Source CFD Toolbox           |
|  \\    /   O peration     | Version:  v2012                                 |
|   \\  /    A nd           | Website:  www.openfoam.com                      |
|    \\/     M anipulation  |                                                 |
\*---------------------------------------------------------------------------*/
FoamFile
{
    version     2.0;
    format      ascii;
    class       volVectorField;
    location    "0";
    object      U;
}
// * * * * * * * * * * * * * * * * * * * * * * * * * * * * * * * * * * * * * //

dimensions      [0 1 -1 0 0 0 0];


internalField   nonuniform List<vector> 
97664
(
(130.288 159.523 0)
(130.322 158.547 0)
(130.484 158.328 0)
(130.903 158.471 0)
(131.715 159.227 0)
(132.817 160.427 0)
(133.905 161.691 0)
(134.7 162.67 0)
(135.11 163.222 0)
(135.216 163.444 0)
(135.171 163.536 0)
(134.708 163.181 0)
(133.615 162.014 0)
(132.184 160.369 0)
(130.95 158.903 0)
(130.232 158.017 0)
(130 157.676 0)
(129.995 157.597 0)
(130.431 157.977 0)
(131.455 159.184 0)
(132.764 160.821 0)
(134.002 162.386 0)
(134.997 163.651 0)
(135.72 164.585 0)
(136.191 165.219 0)
(136.433 165.588 0)
(136.497 165.764 0)
(136.471 165.855 0)
(136.122 165.63 0)
(134.994 164.493 0)
(133.056 162.31 0)
(130.85 159.72 0)
(129.079 157.578 0)
(128.084 156.324 0)
(127.769 155.836 0)
(127.762 155.708 0)
(128.333 156.194 0)
(129.666 157.755 0)
(131.372 159.872 0)
(132.957 161.862 0)
(134.187 163.41 0)
(135.046 164.508 0)
(135.619 165.257 0)
(136.004 165.777 0)
(136.284 166.166 0)
(136.519 166.496 0)
(136.752 166.817 0)
(137.002 167.152 0)
(137.252 167.49 0)
(137.458 167.778 0)
(137.578 167.968 0)
(137.612 168.058 0)
(137.599 168.109 0)
(137.357 167.94 0)
(136.405 166.967 0)
(134.386 164.694 0)
(131.51 161.318 0)
(128.455 157.64 0)
(125.953 154.55 0)
(124.397 152.562 0)
(123.742 151.624 0)
(123.631 151.323 0)
(123.958 151.408 0)
(125.199 152.739 0)
(127.262 155.218 0)
(129.525 158.023 0)
(131.457 160.455 0)
(132.866 162.25 0)
(133.802 163.456 0)
(134.408 164.243 0)
(134.827 164.787 0)
(135.168 165.219 0)
(135.501 165.629 0)
(135.855 166.063 0)
(136.223 166.518 0)
(136.567 166.954 0)
(136.853 167.325 0)
(137.062 167.605 0)
(137.199 167.798 0)
(137.284 167.926 0)
(137.34 168.016 0)
(137.386 168.09 0)
(137.439 168.171 0)
(137.516 168.278 0)
(137.629 168.429 0)
(137.78 168.629 0)
(137.957 168.863 0)
(138.137 169.103 0)
(138.3 169.324 0)
(138.43 169.505 0)
(138.52 169.637 0)
(138.569 169.719 0)
(138.587 169.764 0)
(138.586 169.787 0)
(138.572 169.797 0)
(138.479 169.726 0)
(138.118 169.356 0)
(137.179 168.316 0)
(135.384 166.254 0)
(132.659 163.06 0)
(129.209 158.957 0)
(125.473 154.455 0)
(121.988 150.192 0)
(119.215 146.736 0)
(117.399 144.404 0)
(116.509 143.165 0)
(116.279 142.688 0)
(116.326 142.524 0)
(117.052 143.139 0)
(118.951 145.25 0)
(121.856 148.707 0)
(125.19 152.761 0)
(128.366 156.665 0)
(131.017 159.947 0)
(133.002 162.423 0)
(134.348 164.116 0)
(135.17 165.159 0)
(135.614 165.732 0)
(135.818 166.005 0)
(135.89 166.11 0)
(135.902 166.141 0)
(135.892 166.149 0)
(135.861 166.117 0)
(135.828 166.077 0)
(135.813 166.058 0)
(135.812 166.053 0)
(135.846 166.086 0)
(135.976 166.236 0)
(136.22 166.532 0)
(136.543 166.927 0)
(136.887 167.347 0)
(137.205 167.733 0)
(137.469 168.053 0)
(137.672 168.297 0)
(137.816 168.47 0)
(137.911 168.584 0)
(137.971 168.653 0)
(138.007 168.694 0)
(138.03 168.717 0)
(138.046 168.732 0)
(138.06 168.744 0)
(138.077 168.76 0)
(138.104 168.786 0)
(138.148 168.832 0)
(138.219 168.911 0)
(138.32 169.029 0)
(138.448 169.182 0)
(138.592 169.356 0)
(138.738 169.532 0)
(138.875 169.698 0)
(139 169.847 0)
(139.112 169.98 0)
(139.214 170.098 0)
(139.308 170.207 0)
(139.394 170.306 0)
(139.473 170.397 0)
(139.542 170.477 0)
(139.6 170.543 0)
(139.644 170.593 0)
(139.673 170.627 0)
(139.689 170.644 0)
(139.695 170.65 0)
(139.694 170.648 0)
(139.687 170.638 0)
(139.666 170.607 0)
(139.631 170.555 0)
(139.572 170.474 0)
(139.453 170.327 0)
(139.177 170.012 0)
(138.534 169.299 0)
(137.164 167.781 0)
(134.593 164.898 0)
(130.402 160.124 0)
(124.49 153.257 0)
(117.31 144.724 0)
(109.883 135.642 0)
(103.507 127.536 0)
(99.2265 121.727 0)
(97.2626 118.577 0)
(96.8783 117.244 0)
(97.5233 116.851 0)
(100.146 118.98 0)
(105.547 124.638 0)
(113.045 133.23 0)
(121.144 142.842 0)
(128.373 151.636 0)
(133.861 158.412 0)
(137.442 162.87 0)
(139.435 165.348 0)
(140.369 166.466 0)
(140.725 166.821 0)
(140.817 166.863 0)
(140.798 166.753 0)
(140.673 166.502 0)
(140.449 166.106 0)
(140.192 165.673 0)
(139.968 165.281 0)
(139.811 164.973 0)
(139.727 164.757 0)
(139.702 164.616 0)
(139.724 164.521 0)
(139.785 164.483 0)
(139.9 164.516 0)
(140.089 164.641 0)
(140.332 164.849 0)
(140.617 165.103 0)
(140.922 165.388 0)
(141.235 165.686 0)
(141.552 165.991 0)
(141.872 166.306 0)
(142.196 166.632 0)
(142.526 166.974 0)
(142.866 167.334 0)
(143.22 167.718 0)
(143.593 168.128 0)
(143.983 168.562 0)
(144.373 169.001 0)
(144.704 169.403 0)
(144.942 169.735 0)
(145.057 169.965 0)
(130.277 159.534 0)
(130.326 158.568 0)
(130.503 158.36 0)
(130.959 158.547 0)
(131.811 159.347 0)
(132.926 160.564 0)
(133.993 161.806 0)
(134.748 162.738 0)
(135.122 163.248 0)
(135.208 163.443 0)
(135.138 163.519 0)
(134.613 163.083 0)
(133.465 161.842 0)
(132.035 160.19 0)
(130.852 158.78 0)
(130.196 157.965 0)
(130.006 157.671 0)
(130.028 157.609 0)
(130.524 158.08 0)
(131.597 159.356 0)
(132.914 161.003 0)
(134.129 162.541 0)
(135.094 163.77 0)
(135.787 164.667 0)
(136.228 165.266 0)
(136.442 165.606 0)
(136.49 165.761 0)
(136.444 165.842 0)
(136.013 165.521 0)
(134.758 164.229 0)
(132.744 161.942 0)
(130.567 159.375 0)
(128.901 157.354 0)
(128.022 156.231 0)
(127.777 155.827 0)
(127.821 155.732 0)
(128.501 156.381 0)
(129.922 158.066 0)
(131.636 160.196 0)
(133.176 162.13 0)
(134.345 163.605 0)
(135.153 164.64 0)
(135.689 165.345 0)
(136.053 165.839 0)
(136.322 166.216 0)
(136.556 166.544 0)
(136.794 166.869 0)
(137.047 167.209 0)
(137.293 167.542 0)
(137.484 167.813 0)
(137.585 167.981 0)
(137.604 168.056 0)
(137.571 168.095 0)
(137.221 167.805 0)
(136.047 166.57 0)
(133.799 164.009 0)
(130.818 160.489 0)
(127.838 156.882 0)
(125.539 154.024 0)
(124.217 152.306 0)
(123.737 151.564 0)
(123.68 151.329 0)
(124.191 151.639 0)
(125.665 153.281 0)
(127.83 155.914 0)
(130.041 158.668 0)
(131.848 160.95 0)
(133.13 162.588 0)
(133.973 163.675 0)
(134.523 164.391 0)
(134.918 164.901 0)
(135.257 165.326 0)
(135.597 165.743 0)
(135.958 166.187 0)
(136.323 166.642 0)
(136.654 167.062 0)
(136.917 167.408 0)
(137.104 167.661 0)
(137.224 167.833 0)
(137.299 167.947 0)
(137.35 168.031 0)
(137.397 168.107 0)
(137.457 168.194 0)
(137.544 168.315 0)
(137.671 168.483 0)
(137.832 168.696 0)
(138.013 168.936 0)
(138.19 169.172 0)
(138.343 169.381 0)
(138.46 169.547 0)
(138.535 169.661 0)
(138.572 169.728 0)
(138.582 169.764 0)
(138.576 169.783 0)
(138.547 169.777 0)
(138.381 169.626 0)
(137.835 169.044 0)
(136.585 167.635 0)
(134.416 165.121 0)
(131.364 161.522 0)
(127.741 157.192 0)
(124.047 152.716 0)
(120.812 148.729 0)
(118.42 145.716 0)
(117.001 143.858 0)
(116.412 142.983 0)
(116.316 142.689 0)
(116.576 142.702 0)
(117.757 143.893 0)
(120.114 146.63 0)
(123.27 150.425 0)
(126.591 154.482 0)
(129.57 158.155 0)
(131.939 161.097 0)
(133.641 163.226 0)
(134.745 164.621 0)
(135.387 165.44 0)
(135.713 165.866 0)
(135.85 166.054 0)
(135.889 166.12 0)
(135.892 166.138 0)
(135.874 166.133 0)
(135.84 166.095 0)
(135.815 166.065 0)
(135.807 166.054 0)
(135.817 166.058 0)
(135.891 166.14 0)
(136.077 166.362 0)
(136.366 166.715 0)
(136.707 167.132 0)
(137.044 167.542 0)
(137.339 167.9 0)
(137.573 168.183 0)
(137.746 168.391 0)
(137.865 168.533 0)
(137.941 168.623 0)
(137.988 168.677 0)
(138.016 168.708 0)
(138.035 168.727 0)
(138.05 168.74 0)
(138.066 168.753 0)
(138.087 168.774 0)
(138.122 168.809 0)
(138.179 168.871 0)
(138.265 168.97 0)
(138.381 169.107 0)
(138.519 169.273 0)
(138.666 169.451 0)
(138.809 169.623 0)
(138.94 169.781 0)
(139.059 169.922 0)
(139.166 170.048 0)
(139.264 170.161 0)
(139.354 170.265 0)
(139.437 170.36 0)
(139.511 170.445 0)
(139.574 170.518 0)
(139.624 170.575 0)
(139.66 170.616 0)
(139.682 170.64 0)
(139.692 170.651 0)
(139.694 170.652 0)
(139.691 170.647 0)
(139.678 170.629 0)
(139.652 170.588 0)
(139.606 170.522 0)
(139.518 170.409 0)
(139.319 170.178 0)
(138.851 169.654 0)
(137.813 168.504 0)
(135.769 166.22 0)
(132.259 162.243 0)
(127.038 156.22 0)
(120.33 148.318 0)
(112.942 139.393 0)
(106.093 130.846 0)
(100.961 124.131 0)
(98.1723 120.033 0)
(97.3835 118.185 0)
(97.5278 117.419 0)
(99.15 118.279 0)
(103.382 122.462 0)
(110.109 129.96 0)
(118.05 139.298 0)
(125.672 148.487 0)
(131.845 156.072 0)
(136.136 161.398 0)
(138.698 164.586 0)
(139.994 166.173 0)
(140.532 166.774 0)
(140.693 166.91 0)
(140.714 166.853 0)
(140.629 166.67 0)
(140.432 166.316 0)
(140.173 165.88 0)
(139.927 165.463 0)
(139.741 165.122 0)
(139.628 164.874 0)
(139.584 164.709 0)
(139.589 164.6 0)
(139.633 164.541 0)
(139.724 164.54 0)
(139.884 164.637 0)
(140.11 164.819 0)
(140.382 165.061 0)
(140.68 165.337 0)
(140.989 165.63 0)
(141.301 165.931 0)
(141.615 166.238 0)
(141.932 166.556 0)
(142.254 166.887 0)
(142.587 167.237 0)
(142.934 167.611 0)
(143.3 168.011 0)
(143.68 168.434 0)
(144.056 168.858 0)
(144.37 169.237 0)
(144.583 169.532 0)
(144.694 169.721 0)
(144.704 169.823 0)
(130.267 159.546 0)
(130.333 158.592 0)
(130.529 158.396 0)
(131.02 158.627 0)
(131.91 159.471 0)
(133.034 160.7 0)
(134.076 161.915 0)
(134.792 162.8 0)
(135.131 163.269 0)
(135.199 163.44 0)
(135.099 163.495 0)
(134.51 162.974 0)
(133.312 161.664 0)
(131.89 160.015 0)
(130.762 158.666 0)
(130.168 157.92 0)
(130.01 157.666 0)
(130.066 157.627 0)
(130.625 158.192 0)
(131.742 159.532 0)
(133.061 161.183 0)
(134.253 162.692 0)
(135.187 163.883 0)
(135.85 164.744 0)
(136.26 165.308 0)
(136.449 165.621 0)
(136.482 165.757 0)
(136.41 165.82 0)
(135.886 165.393 0)
(134.508 163.946 0)
(132.431 161.572 0)
(130.298 159.045 0)
(128.744 157.151 0)
(127.975 156.154 0)
(127.784 155.82 0)
(127.895 155.774 0)
(128.687 156.588 0)
(130.183 158.383 0)
(131.895 160.514 0)
(133.385 162.385 0)
(134.494 163.787 0)
(135.251 164.763 0)
(135.754 165.428 0)
(136.099 165.898 0)
(136.36 166.265 0)
(136.594 166.592 0)
(136.836 166.922 0)
(137.093 167.266 0)
(137.332 167.592 0)
(137.505 167.843 0)
(137.586 167.99 0)
(137.596 168.053 0)
(137.529 168.065 0)
(137.044 167.624 0)
(135.635 166.108 0)
(133.179 163.281 0)
(130.132 159.665 0)
(127.264 156.173 0)
(125.182 153.567 0)
(124.079 152.107 0)
(123.75 151.532 0)
(123.765 151.355 0)
(124.477 151.946 0)
(126.163 153.876 0)
(128.391 156.605 0)
(130.527 159.276 0)
(132.204 161.401 0)
(133.367 162.891 0)
(134.126 163.872 0)
(134.63 164.528 0)
(135.008 165.012 0)
(135.347 165.434 0)
(135.695 165.861 0)
(136.061 166.311 0)
(136.42 166.761 0)
(136.733 167.163 0)
(136.975 167.482 0)
(137.14 167.71 0)
(137.245 167.862 0)
(137.312 167.966 0)
(137.36 168.047 0)
(137.41 168.125 0)
(137.477 168.222 0)
(137.577 168.357 0)
(137.716 168.541 0)
(137.887 168.766 0)
(138.069 169.008 0)
(138.24 169.238 0)
(138.382 169.434 0)
(138.485 169.582 0)
(138.546 169.679 0)
(138.571 169.733 0)
(138.575 169.761 0)
(138.565 169.776 0)
(138.503 169.739 0)
(138.229 169.465 0)
(137.445 168.608 0)
(135.848 166.786 0)
(133.312 163.824 0)
(129.985 159.879 0)
(126.272 155.418 0)
(122.708 151.074 0)
(119.785 147.444 0)
(117.794 144.902 0)
(116.754 143.483 0)
(116.427 142.901 0)
(116.413 142.703 0)
(116.971 143.095 0)
(118.654 144.917 0)
(121.407 148.177 0)
(124.697 152.166 0)
(127.915 156.114 0)
(130.65 159.497 0)
(132.732 162.09 0)
(134.165 163.889 0)
(135.054 165.017 0)
(135.544 165.648 0)
(135.777 165.957 0)
(135.865 166.082 0)
(135.884 166.122 0)
(135.879 166.134 0)
(135.853 166.112 0)
(135.823 166.077 0)
(135.807 166.057 0)
(135.805 166.053 0)
(135.836 166.083 0)
(135.961 166.227 0)
(136.202 166.519 0)
(136.524 166.913 0)
(136.87 167.335 0)
(137.191 167.725 0)
(137.458 168.048 0)
(137.662 168.294 0)
(137.807 168.468 0)
(137.903 168.583 0)
(137.963 168.654 0)
(138 168.695 0)
(138.023 168.72 0)
(138.04 168.735 0)
(138.055 168.748 0)
(138.073 168.765 0)
(138.1 168.791 0)
(138.145 168.839 0)
(138.216 168.919 0)
(138.318 169.039 0)
(138.447 169.193 0)
(138.592 169.367 0)
(138.738 169.544 0)
(138.876 169.71 0)
(139.002 169.86 0)
(139.115 169.993 0)
(139.217 170.113 0)
(139.311 170.221 0)
(139.398 170.321 0)
(139.476 170.411 0)
(139.544 170.489 0)
(139.6 170.553 0)
(139.643 170.601 0)
(139.671 170.633 0)
(139.686 170.65 0)
(139.692 170.655 0)
(139.692 170.652 0)
(139.686 170.643 0)
(139.667 170.615 0)
(139.632 170.563 0)
(139.566 170.475 0)
(139.424 170.304 0)
(139.088 169.923 0)
(138.317 169.067 0)
(136.726 167.295 0)
(133.849 164.051 0)
(129.337 158.878 0)
(123.213 151.717 0)
(116.054 143.151 0)
(108.94 134.387 0)
(103.111 126.904 0)
(99.439 121.824 0)
(97.9478 119.242 0)
(97.7509 118.198 0)
(98.6133 118.092 0)
(101.659 120.835 0)
(107.384 127.02 0)
(114.914 135.721 0)
(122.732 145.074 0)
(129.507 153.341 0)
(134.527 159.555 0)
(137.727 163.542 0)
(139.468 165.704 0)
(140.26 166.646 0)
(140.545 166.92 0)
(140.617 166.933 0)
(140.576 166.811 0)
(140.419 166.521 0)
(140.17 166.1 0)
(139.907 165.663 0)
(139.693 165.289 0)
(139.551 165.006 0)
(139.482 164.813 0)
(139.468 164.686 0)
(139.494 164.604 0)
(139.562 164.58 0)
(139.693 164.637 0)
(139.897 164.793 0)
(140.154 165.017 0)
(140.443 165.283 0)
(140.747 165.569 0)
(141.055 165.864 0)
(141.364 166.165 0)
(141.675 166.474 0)
(141.99 166.795 0)
(142.314 167.134 0)
(142.653 167.496 0)
(143.011 167.885 0)
(143.383 168.296 0)
(143.747 168.706 0)
(144.054 169.072 0)
(144.271 169.357 0)
(144.389 169.544 0)
(144.414 169.642 0)
(144.388 169.708 0)
(130.262 159.559 0)
(130.343 158.618 0)
(130.561 158.436 0)
(131.087 158.713 0)
(132.012 159.598 0)
(133.141 160.835 0)
(134.156 162.02 0)
(134.831 162.857 0)
(135.137 163.287 0)
(135.189 163.437 0)
(135.055 163.464 0)
(134.401 162.857 0)
(133.159 161.484 0)
(131.75 159.845 0)
(130.68 158.561 0)
(130.145 157.882 0)
(130.014 157.662 0)
(130.11 157.654 0)
(130.734 158.312 0)
(131.889 159.711 0)
(133.206 161.361 0)
(134.374 162.839 0)
(135.277 163.993 0)
(135.909 164.817 0)
(136.289 165.346 0)
(136.453 165.632 0)
(136.473 165.754 0)
(136.367 165.789 0)
(135.743 165.245 0)
(134.245 163.645 0)
(132.12 161.201 0)
(130.044 158.732 0)
(128.607 156.97 0)
(127.941 156.092 0)
(127.793 155.815 0)
(127.983 155.838 0)
(128.889 156.816 0)
(130.449 158.706 0)
(132.147 160.824 0)
(133.582 162.628 0)
(134.633 163.959 0)
(135.343 164.878 0)
(135.816 165.506 0)
(136.143 165.955 0)
(136.398 166.313 0)
(136.633 166.641 0)
(136.88 166.976 0)
(137.138 167.321 0)
(137.368 167.638 0)
(137.522 167.868 0)
(137.584 167.994 0)
(137.588 168.052 0)
(137.468 168.014 0)
(136.821 167.391 0)
(135.171 165.581 0)
(132.531 162.517 0)
(129.462 158.853 0)
(126.737 155.516 0)
(124.881 153.176 0)
(123.984 151.955 0)
(123.766 151.521 0)
(123.893 151.421 0)
(124.824 152.325 0)
(126.687 154.512 0)
(128.939 157.285 0)
(130.98 159.846 0)
(132.526 161.811 0)
(133.579 163.163 0)
(134.265 164.051 0)
(134.732 164.656 0)
(135.098 165.121 0)
(135.439 165.545 0)
(135.795 165.98 0)
(136.163 166.435 0)
(136.512 166.875 0)
(136.806 167.255 0)
(137.025 167.548 0)
(137.171 167.752 0)
(137.263 167.889 0)
(137.323 167.984 0)
(137.371 168.062 0)
(137.425 168.146 0)
(137.501 168.253 0)
(137.614 168.404 0)
(137.765 168.604 0)
(137.942 168.837 0)
(138.123 169.078 0)
(138.287 169.299 0)
(138.416 169.481 0)
(138.504 169.611 0)
(138.552 169.691 0)
(138.568 169.735 0)
(138.566 169.757 0)
(138.548 169.764 0)
(138.432 169.668 0)
(138 169.219 0)
(136.931 168.026 0)
(134.967 165.762 0)
(132.087 162.376 0)
(128.551 158.162 0)
(124.837 153.675 0)
(121.483 149.561 0)
(118.916 146.347 0)
(117.321 144.282 0)
(116.605 143.253 0)
(116.455 142.881 0)
(116.607 142.793 0)
(117.575 143.729 0)
(119.732 146.187 0)
(122.779 149.837 0)
(126.096 153.882 0)
(129.141 157.63 0)
(131.605 160.688 0)
(133.403 162.934 0)
(134.587 164.429 0)
(135.289 165.324 0)
(135.654 165.799 0)
(135.814 166.016 0)
(135.866 166.096 0)
(135.875 166.12 0)
(135.862 166.123 0)
(135.833 166.092 0)
(135.809 166.064 0)
(135.801 166.054 0)
(135.809 166.057 0)
(135.878 166.133 0)
(136.059 166.348 0)
(136.346 166.699 0)
(136.688 167.117 0)
(137.028 167.531 0)
(137.325 167.892 0)
(137.562 168.178 0)
(137.736 168.388 0)
(137.855 168.531 0)
(137.932 168.622 0)
(137.98 168.678 0)
(138.009 168.71 0)
(138.029 168.729 0)
(138.044 168.743 0)
(138.06 168.757 0)
(138.083 168.779 0)
(138.118 168.815 0)
(138.175 168.878 0)
(138.262 168.978 0)
(138.379 169.117 0)
(138.518 169.283 0)
(138.665 169.461 0)
(138.808 169.634 0)
(138.94 169.793 0)
(139.06 169.935 0)
(139.167 170.061 0)
(139.266 170.175 0)
(139.356 170.279 0)
(139.439 170.374 0)
(139.512 170.458 0)
(139.573 170.528 0)
(139.622 170.583 0)
(139.657 170.623 0)
(139.678 170.646 0)
(139.688 170.656 0)
(139.691 170.657 0)
(139.688 170.652 0)
(139.677 170.635 0)
(139.652 170.597 0)
(139.603 170.528 0)
(139.501 170.4 0)
(139.262 170.124 0)
(138.7 169.497 0)
(137.487 168.15 0)
(135.182 165.56 0)
(131.368 161.212 0)
(125.899 154.863 0)
(119.125 146.83 0)
(111.936 138.083 0)
(105.536 130.031 0)
(100.97 123.99 0)
(98.6604 120.518 0)
(98.1065 119.028 0)
(98.4422 118.447 0)
(100.413 119.781 0)
(105.005 124.515 0)
(111.85 132.282 0)
(119.624 141.474 0)
(126.867 150.253 0)
(132.597 157.309 0)
(136.501 162.163 0)
(138.787 165.007 0)
(139.92 166.387 0)
(140.377 166.888 0)
(140.506 166.994 0)
(140.509 166.914 0)
(140.401 166.707 0)
(140.178 166.326 0)
(139.907 165.881 0)
(139.666 165.473 0)
(139.493 165.154 0)
(139.395 164.928 0)
(139.36 164.78 0)
(139.369 164.68 0)
(139.415 164.63 0)
(139.518 164.651 0)
(139.698 164.77 0)
(139.935 164.973 0)
(140.213 165.225 0)
(140.511 165.505 0)
(140.815 165.794 0)
(141.119 166.089 0)
(141.424 166.39 0)
(141.733 166.701 0)
(142.05 167.029 0)
(142.38 167.379 0)
(142.729 167.755 0)
(143.092 168.154 0)
(143.449 168.554 0)
(143.76 168.916 0)
(143.988 169.199 0)
(144.115 169.384 0)
(144.157 169.49 0)
(144.146 169.553 0)
(144.116 169.606 0)
(130.263 159.572 0)
(130.358 158.648 0)
(130.596 158.479 0)
(131.16 158.803 0)
(132.117 159.728 0)
(133.246 160.969 0)
(134.233 162.121 0)
(134.867 162.909 0)
(135.139 163.302 0)
(135.178 163.434 0)
(135.005 163.425 0)
(134.286 162.731 0)
(133.004 161.302 0)
(131.617 159.681 0)
(130.606 158.464 0)
(130.127 157.849 0)
(130.018 157.659 0)
(130.16 157.691 0)
(130.849 158.44 0)
(132.037 159.891 0)
(133.349 161.535 0)
(134.491 162.982 0)
(135.363 164.098 0)
(135.964 164.885 0)
(136.314 165.38 0)
(136.453 165.64 0)
(136.464 165.75 0)
(136.314 165.747 0)
(135.581 165.075 0)
(133.971 163.329 0)
(131.812 160.833 0)
(129.806 158.436 0)
(128.486 156.809 0)
(127.916 156.043 0)
(127.806 155.812 0)
(128.086 155.925 0)
(129.106 157.062 0)
(130.716 159.031 0)
(132.392 161.125 0)
(133.77 162.86 0)
(134.763 164.12 0)
(135.429 164.986 0)
(135.873 165.579 0)
(136.185 166.01 0)
(136.435 166.362 0)
(136.673 166.691 0)
(136.925 167.031 0)
(137.181 167.376 0)
(137.4 167.681 0)
(137.535 167.888 0)
(137.579 167.994 0)
(137.574 168.049 0)
(137.384 167.938 0)
(136.549 167.1 0)
(134.66 164.994 0)
(131.866 161.727 0)
(128.816 158.065 0)
(126.26 154.918 0)
(124.633 152.848 0)
(123.921 151.845 0)
(123.789 151.519 0)
(124.063 151.548 0)
(125.224 152.774 0)
(127.229 155.173 0)
(129.468 157.945 0)
(131.399 160.376 0)
(132.818 162.184 0)
(133.77 163.408 0)
(134.392 164.215 0)
(134.829 164.779 0)
(135.188 165.231 0)
(135.534 165.658 0)
(135.896 166.102 0)
(136.263 166.557 0)
(136.599 166.984 0)
(136.872 167.34 0)
(137.069 167.606 0)
(137.198 167.789 0)
(137.279 167.911 0)
(137.334 168.001 0)
(137.383 168.079 0)
(137.442 168.169 0)
(137.529 168.289 0)
(137.655 168.457 0)
(137.817 168.67 0)
(137.998 168.909 0)
(138.176 169.147 0)
(138.329 169.356 0)
(138.445 169.521 0)
(138.519 169.634 0)
(138.554 169.699 0)
(138.563 169.734 0)
(138.555 169.753 0)
(138.517 169.739 0)
(138.316 169.549 0)
(137.677 168.862 0)
(136.28 167.28 0)
(133.945 164.566 0)
(130.764 160.805 0)
(127.097 156.412 0)
(123.471 152.005 0)
(120.4 148.206 0)
(118.227 145.448 0)
(117.022 143.837 0)
(116.58 143.132 0)
(116.519 142.887 0)
(116.93 143.085 0)
(118.382 144.624 0)
(120.958 147.649 0)
(124.184 151.549 0)
(127.433 155.528 0)
(130.253 159.011 0)
(132.434 161.725 0)
(133.959 163.638 0)
(134.922 164.859 0)
(135.465 165.555 0)
(135.73 165.904 0)
(135.836 166.052 0)
(135.863 166.102 0)
(135.863 166.116 0)
(135.844 166.106 0)
(135.817 166.075 0)
(135.801 166.056 0)
(135.797 166.052 0)
(135.826 166.078 0)
(135.945 166.215 0)
(136.182 166.502 0)
(136.504 166.895 0)
(136.852 167.32 0)
(137.175 167.714 0)
(137.444 168.04 0)
(137.65 168.289 0)
(137.796 168.465 0)
(137.893 168.581 0)
(137.955 168.653 0)
(137.992 168.696 0)
(138.016 168.721 0)
(138.033 168.738 0)
(138.049 168.752 0)
(138.067 168.769 0)
(138.095 168.797 0)
(138.141 168.845 0)
(138.213 168.927 0)
(138.315 169.047 0)
(138.445 169.202 0)
(138.59 169.376 0)
(138.736 169.554 0)
(138.875 169.721 0)
(139.001 169.871 0)
(139.115 170.006 0)
(139.218 170.126 0)
(139.312 170.235 0)
(139.399 170.334 0)
(139.477 170.423 0)
(139.543 170.5 0)
(139.598 170.563 0)
(139.639 170.609 0)
(139.666 170.639 0)
(139.681 170.655 0)
(139.688 170.66 0)
(139.688 170.657 0)
(139.683 170.649 0)
(139.666 170.622 0)
(139.63 170.571 0)
(139.556 170.475 0)
(139.388 170.274 0)
(138.984 169.821 0)
(138.08 168.815 0)
(136.272 166.793 0)
(133.118 163.217 0)
(128.344 157.71 0)
(122.083 150.347 0)
(115.011 141.836 0)
(108.236 133.436 0)
(102.916 126.548 0)
(99.7614 122.089 0)
(98.6369 119.955 0)
(98.5702 119.106 0)
(99.6457 119.384 0)
(103.039 122.55 0)
(108.979 129.109 0)
(116.445 137.822 0)
(123.967 146.859 0)
(130.34 154.663 0)
(134.975 160.408 0)
(137.883 164.034 0)
(139.439 165.964 0)
(140.133 166.782 0)
(140.372 167.004 0)
(140.43 167.006 0)
(140.37 166.866 0)
(140.188 166.544 0)
(139.923 166.11 0)
(139.66 165.678 0)
(139.455 165.32 0)
(139.326 165.057 0)
(139.267 164.881 0)
(139.26 164.766 0)
(139.289 164.692 0)
(139.364 164.678 0)
(139.511 164.761 0)
(139.725 164.933 0)
(139.989 165.168 0)
(140.28 165.438 0)
(140.58 165.723 0)
(140.881 166.012 0)
(141.181 166.305 0)
(141.483 166.607 0)
(141.793 166.923 0)
(142.115 167.261 0)
(142.455 167.624 0)
(142.811 168.011 0)
(143.167 168.405 0)
(143.488 168.767 0)
(143.727 169.055 0)
(143.863 169.247 0)
(143.919 169.356 0)
(143.921 169.416 0)
(143.896 169.462 0)
(143.875 169.534 0)
(130.267 159.587 0)
(130.376 158.681 0)
(130.637 158.526 0)
(131.238 158.898 0)
(132.223 159.861 0)
(133.35 161.1 0)
(134.305 162.217 0)
(134.899 162.957 0)
(135.139 163.313 0)
(135.165 163.432 0)
(134.949 163.377 0)
(134.164 162.598 0)
(132.849 161.12 0)
(131.489 159.524 0)
(130.54 158.375 0)
(130.113 157.821 0)
(130.025 157.657 0)
(130.216 157.737 0)
(130.969 158.576 0)
(132.187 160.073 0)
(133.489 161.707 0)
(134.605 163.12 0)
(135.446 164.198 0)
(136.016 164.949 0)
(136.336 165.409 0)
(136.45 165.644 0)
(136.452 165.749 0)
(136.251 165.691 0)
(135.402 164.885 0)
(133.687 162.999 0)
(131.511 160.471 0)
(129.586 158.16 0)
(128.382 156.667 0)
(127.901 156.006 0)
(127.827 155.815 0)
(128.203 156.037 0)
(129.334 157.325 0)
(130.984 159.357 0)
(132.629 161.416 0)
(133.948 163.078 0)
(134.884 164.272 0)
(135.509 165.087 0)
(135.927 165.648 0)
(136.226 166.063 0)
(136.473 166.41 0)
(136.714 166.742 0)
(136.97 167.087 0)
(137.224 167.43 0)
(137.428 167.719 0)
(137.544 167.905 0)
(137.573 167.991 0)
(137.553 168.041 0)
(137.27 167.828 0)
(136.225 166.747 0)
(134.106 164.351 0)
(131.192 160.923 0)
(128.201 157.312 0)
(125.839 154.382 0)
(124.441 152.578 0)
(123.902 151.774 0)
(123.828 151.521 0)
(124.278 151.751 0)
(125.668 153.283 0)
(127.779 155.846 0)
(129.973 158.578 0)
(131.785 160.865 0)
(133.081 162.521 0)
(133.942 163.629 0)
(134.51 164.366 0)
(134.924 164.897 0)
(135.279 165.341 0)
(135.631 165.774 0)
(135.998 166.225 0)
(136.36 166.676 0)
(136.68 167.086 0)
(136.932 167.417 0)
(137.107 167.658 0)
(137.22 167.821 0)
(137.292 167.932 0)
(137.345 168.017 0)
(137.396 168.098 0)
(137.463 168.195 0)
(137.562 168.33 0)
(137.7 168.514 0)
(137.871 168.739 0)
(138.053 168.981 0)
(138.225 169.212 0)
(138.368 169.408 0)
(138.47 169.556 0)
(138.529 169.651 0)
(138.552 169.704 0)
(138.555 169.731 0)
(138.543 169.745 0)
(138.466 169.691 0)
(138.136 169.359 0)
(137.241 168.371 0)
(135.488 166.363 0)
(132.796 163.212 0)
(129.372 159.142 0)
(125.66 154.671 0)
(122.204 150.445 0)
(119.467 147.033 0)
(117.687 144.748 0)
(116.824 143.545 0)
(116.603 143.085 0)
(116.665 142.932 0)
(117.432 143.6 0)
(119.37 145.771 0)
(122.283 149.244 0)
(125.579 153.256 0)
(128.682 157.072 0)
(131.243 160.245 0)
(133.141 162.614 0)
(134.413 164.216 0)
(135.181 165.193 0)
(135.59 165.724 0)
(135.778 165.974 0)
(135.844 166.071 0)
(135.857 166.101 0)
(135.849 166.11 0)
(135.825 166.088 0)
(135.803 166.062 0)
(135.795 166.052 0)
(135.801 166.055 0)
(135.864 166.125 0)
(136.04 166.333 0)
(136.324 166.68 0)
(136.667 167.099 0)
(137.009 167.516 0)
(137.309 167.881 0)
(137.548 168.17 0)
(137.724 168.383 0)
(137.845 168.528 0)
(137.923 168.621 0)
(137.971 168.678 0)
(138.001 168.711 0)
(138.021 168.731 0)
(138.037 168.746 0)
(138.054 168.761 0)
(138.077 168.783 0)
(138.112 168.82 0)
(138.17 168.884 0)
(138.258 168.985 0)
(138.375 169.125 0)
(138.514 169.292 0)
(138.662 169.47 0)
(138.806 169.644 0)
(138.939 169.803 0)
(139.059 169.946 0)
(139.167 170.073 0)
(139.266 170.188 0)
(139.357 170.292 0)
(139.439 170.386 0)
(139.511 170.469 0)
(139.571 170.538 0)
(139.618 170.591 0)
(139.651 170.629 0)
(139.672 170.652 0)
(139.682 170.661 0)
(139.686 170.662 0)
(139.684 170.657 0)
(139.674 170.642 0)
(139.65 170.604 0)
(139.597 170.533 0)
(139.478 170.387 0)
(139.192 170.061 0)
(138.53 169.323 0)
(137.144 167.777 0)
(134.595 164.9 0)
(130.52 160.228 0)
(124.869 153.63 0)
(118.095 145.551 0)
(111.145 137.042 0)
(105.188 129.484 0)
(101.142 124.051 0)
(99.2269 121.08 0)
(98.825 119.848 0)
(99.3232 119.446 0)
(101.579 121.262 0)
(106.425 126.346 0)
(113.308 134.258 0)
(120.876 143.26 0)
(127.768 151.638 0)
(133.126 158.252 0)
(136.723 162.729 0)
(138.802 165.316 0)
(139.819 166.55 0)
(140.223 166.984 0)
(140.329 167.065 0)
(140.319 166.982 0)
(140.192 166.75 0)
(139.95 166.346 0)
(139.674 165.9 0)
(139.439 165.505 0)
(139.277 165.203 0)
(139.19 164.995 0)
(139.163 164.858 0)
(139.175 164.765 0)
(139.225 164.723 0)
(139.339 164.762 0)
(139.528 164.902 0)
(139.774 165.114 0)
(140.054 165.372 0)
(140.349 165.649 0)
(140.647 165.934 0)
(140.944 166.221 0)
(141.241 166.514 0)
(141.544 166.82 0)
(141.858 167.145 0)
(142.191 167.496 0)
(142.541 167.871 0)
(142.896 168.258 0)
(143.224 168.623 0)
(143.474 168.92 0)
(143.63 169.123 0)
(143.702 169.241 0)
(143.715 169.301 0)
(143.699 169.342 0)
(143.677 169.387 0)
(143.689 169.485 0)
(130.275 159.602 0)
(130.397 158.717 0)
(130.683 158.577 0)
(131.321 158.998 0)
(132.331 159.995 0)
(133.451 161.229 0)
(134.374 162.308 0)
(134.927 163 0)
(135.136 163.321 0)
(135.15 163.429 0)
(134.888 163.32 0)
(134.037 162.456 0)
(132.696 160.937 0)
(131.369 159.374 0)
(130.48 158.294 0)
(130.103 157.798 0)
(130.035 157.657 0)
(130.278 157.793 0)
(131.094 158.718 0)
(132.337 160.255 0)
(133.626 161.876 0)
(134.715 163.254 0)
(135.524 164.294 0)
(136.063 165.009 0)
(136.354 165.435 0)
(136.445 165.646 0)
(136.437 165.746 0)
(136.176 165.621 0)
(135.207 164.673 0)
(133.396 162.659 0)
(131.218 160.116 0)
(129.382 157.903 0)
(128.293 156.542 0)
(127.901 155.978 0)
(127.859 155.823 0)
(128.335 156.173 0)
(129.571 157.604 0)
(131.249 159.68 0)
(132.856 161.696 0)
(134.116 163.286 0)
(134.998 164.414 0)
(135.584 165.182 0)
(135.978 165.714 0)
(136.265 166.115 0)
(136.511 166.458 0)
(136.756 166.795 0)
(137.015 167.143 0)
(137.264 167.481 0)
(137.453 167.752 0)
(137.55 167.917 0)
(137.565 167.989 0)
(137.521 168.021 0)
(137.12 167.678 0)
(135.849 166.33 0)
(133.515 163.661 0)
(130.52 160.117 0)
(127.623 156.6 0)
(125.468 153.911 0)
(124.29 152.363 0)
(123.914 151.734 0)
(123.9 151.538 0)
(124.537 152.027 0)
(126.142 153.848 0)
(128.325 156.519 0)
(130.451 159.177 0)
(132.138 161.313 0)
(133.319 162.824 0)
(134.097 163.829 0)
(134.621 164.507 0)
(135.017 165.012 0)
(135.372 165.452 0)
(135.73 165.892 0)
(136.099 166.347 0)
(136.452 166.791 0)
(136.755 167.181 0)
(136.984 167.486 0)
(137.14 167.702 0)
(137.24 167.849 0)
(137.304 167.951 0)
(137.355 168.033 0)
(137.411 168.118 0)
(137.486 168.226 0)
(137.598 168.377 0)
(137.748 168.576 0)
(137.926 168.81 0)
(138.108 169.051 0)
(138.272 169.273 0)
(138.401 169.454 0)
(138.488 169.584 0)
(138.534 169.663 0)
(138.549 169.705 0)
(138.545 169.727 0)
(138.523 169.73 0)
(138.38 169.606 0)
(137.875 169.075 0)
(136.676 167.728 0)
(134.554 165.274 0)
(131.539 161.723 0)
(127.943 157.426 0)
(124.274 152.981 0)
(121.065 149.027 0)
(118.703 146.05 0)
(117.31 144.225 0)
(116.735 143.373 0)
(116.642 143.086 0)
(116.921 143.124 0)
(118.14 144.363 0)
(120.518 147.133 0)
(123.658 150.916 0)
(126.925 154.911 0)
(129.825 158.489 0)
(132.109 161.328 0)
(133.733 163.362 0)
(134.776 164.681 0)
(135.376 165.449 0)
(135.678 165.845 0)
(135.805 166.019 0)
(135.843 166.081 0)
(135.847 166.098 0)
(135.833 166.098 0)
(135.809 166.072 0)
(135.793 166.054 0)
(135.789 166.05 0)
(135.816 166.073 0)
(135.928 166.203 0)
(136.16 166.483 0)
(136.48 166.875 0)
(136.83 167.302 0)
(137.156 167.7 0)
(137.428 168.03 0)
(137.637 168.282 0)
(137.784 168.46 0)
(137.883 168.578 0)
(137.945 168.652 0)
(137.984 168.696 0)
(138.008 168.723 0)
(138.026 168.74 0)
(138.042 168.755 0)
(138.061 168.773 0)
(138.089 168.801 0)
(138.135 168.851 0)
(138.207 168.933 0)
(138.31 169.054 0)
(138.44 169.209 0)
(138.585 169.384 0)
(138.733 169.562 0)
(138.872 169.73 0)
(138.999 169.882 0)
(139.113 170.017 0)
(139.217 170.138 0)
(139.312 170.248 0)
(139.398 170.347 0)
(139.475 170.435 0)
(139.54 170.51 0)