/*--------------------------------*- C++ -*----------------------------------*\
| =========                 |                                                 |
| \\      /  F ield         | OpenFOAM: The Open Source CFD Toolbox           |
|  \\    /   O peration     | Version:  v2112                                 |
|   \\  /    A nd           | Website:  www.openfoam.com                      |
|    \\/     M anipulation  |                                                 |
\*---------------------------------------------------------------------------*/
FoamFile
{
    version     2.0;
    format      ascii;
    class       volVectorField;
    object      U;
}
// * * * * * * * * * * * * * * * * * * * * * * * * * * * * * * * * * * * * * //

dimensions      [0 1 -1 0 0 0 0];

//#include        "include/freestreamConditions"

internalField   uniform (0 0 0);

boundaryField
{
    inlet
    {
        type            fixedValue;
        value           uniform (363.02 0 0);
//        type            fixedValue;
//        value           uniform (411.6 0 0);
    }

    outlet
    {
        type            zeroGradient;
    }

    plate
    {
        type            slip;
    }

    above
    {
        type            symmetryPlane;
    }

    top
    {
        type            zeroGradient;
    }

    frontAndBack
    {
        type            empty;
    }
}


// ************************************************************************* //
