/*--------------------------------*- C++ -*----------------------------------* \
| =========                 |                                                 |
| \\      /  F ield         | OpenFOAM: The Open Source CFD Toolbox           |
|  \\    /   O peration     | Version:  dev                                   |
|   \\  /    A nd           | Web:      www.OpenFOAM.org                      |
|    \\/     M anipulation  |                                                 |
\*---------------------------------------------------------------------------*/
FoamFile
{
    version     2.0;
    format      ascii;
    class       volVectorField;
    object      U;
}
// * * * * * * * * * * * * * * * * * * * * * * * * * * * * * * * * * * * * * //

#include        "include/freestreamConditions"


dimensions      [0 1 -1 0 0 0 0];

internalField   uniform $Uoutlet;

boundaryField
{
    INLET
    {
        type            freestreamVelocity;
        freestreamValue uniform $Uinlet;
    }
    OUTLET
    {
        //type            inletOutlet;
        //inletValue      uniform $Uinlet;
        //value           uniform $Uinlet;
	type            velocityOutletNSCBCx;
        pInf            $poutlet;
        gamma           1.4;
        etaAc           1;
        fieldInf        (1 0 0);
        lInf            1;
        value           $internalField;;
        //type            inletOutlet;
        //inletValue      uniform (0 0 0);
        //value           uniform (0 0 0);

    }
    row_1_PER1
    {
        type            cyclic;
        //value           uniform (0 0 0);
    }
    row_1_PER2
    {
        type            cyclic;
        //value           uniform (0 0 0);
    }
    Blade
    {
        type            noSlip;
    }
    front
    {
        type            empty;
    }
    back
    {
        type            empty;
    }
}

// ************************************************************************* //
